[Molden Format]
[Molpro variables]
_NUMVAR=  818.0000000000000    
_AVOGAD= 0.6022136736000000E+24
_BOLTZ= 0.1380658000000000E-22
_CLIGHT=  29979245800.00000    
_EV2006= 0.3674930886769165E-01
_EV= 0.3674932534394180E-01
_ENULL= 0.8854187817000000E-11
_KJOULE= 0.3808798324128737E-03
_KJOULE/MOL= 0.3808798324128737E-03
_CM= 0.4556335267302901E-05
_CM-1= 0.4556335267302901E-05
_DEB2SI= 0.3335641000000000E-29
_AMU2AU=  1822.888390000000    
_KCAL= 0.1593601117815568E-02
_KCAL/MOL= 0.1593601117815568E-02
_KELVIN2006= 0.3166828861084835E-05
_KELVIN= 0.3166814820820034E-05
_JOULE= 0.4359748200000000E-17
_HERTZ2006= 0.1519829850815779E-15
_HERTZ= 0.1519829846011223E-15
_HZ2006= 0.1519829850815779E-15
_HZ= 0.1519829846011223E-15
_JPCAL=  4.184000000000000    
_PLANCK= 0.6626075540000000E-33
_TOA2006= 0.5291772490000000    
_TOA= 0.5291772090000000    
_TOANG2006= 0.5291772490000000    
_TOANG= 0.5291772090000000    
_TORAD= 0.1745329251994330E-01
_TOCM=  219474.6306700000    
_TODEBYE=  2.541580000000000    
_TOEV2006=  27.21139610000000    
_TOE= 0.4803242000000000E-09
_TOEV=  27.21138390000000    
_TOHERTZ2006=  6579683899900000.    
_TOHERTZ=  6579683920700000.    
_TOHZ2006=  6579683899900000.    
_TOHZ=  6579683920700000.    
_TOK2006=  315773.3000000000    
_TOK=  315774.7000000000    
_TOKCAL=  627.5096000000000    
_TOKELVIN2006=  315773.3000000000    
_TOKELVIN=  315774.7000000000    
_TOKJ=  2625.500000000000    
_TOKJOULE=  2625.500000000000    
_TOKG= 0.1660565586000000E-26
_ANG2006=  1.889725988578923    
_ANG=  1.889726131421507    
_ANGSTROM2006=  1.889725988578923    
_ANGSTROM=  1.889726131421507    
_RPAREF=  0.000000000000000    
_RPADISS=  0.000000000000000    
_IGNORE_UNDEF=  2.000000000000000    
_STRICTCHECK=  0.000000000000000    
_SEW_ONEEL=  0.000000000000000    
_CPPDONE=FALSE
_DKROLL_DONE=  0.000000000000000    
_FOCKDONE=TRUE
_GRADONE=FALSE
_HESSDONE=FALSE
_INTDONE=TRUE
_SCFDONE=TRUE
_MODUL_BLOCK=FALSE
_MODUL_CUDA=FALSE
_MODUL_SLATER=FALSE
_MODUL_MRCC=FALSE
_MODUL_NBO6=FALSE
_MODUL_NECI=TRUE
_MODUL_AIMS=TRUE
_MRCC_EXEC=
_FITC_AO_SAVED=FALSE
_FITC_MO_SAVED=FALSE
_SHARED_FS=TRUE
_LSTYP=SEWARD
_INTYP=INTS
_GEOMTYP=ZMAT
_GRADTYP=ALASKA
_DIRECT=FALSE
_DKHO= -1.000000000000000    
_SYNCM=  0.000000000000000    
_BASIS=$BSET
_ZORIENT=  1.000000000000000    
_NELEC=  48.00000000000000    
!SPIN=  0.000000000000000    
_QSDSTEP=  0.000000000000000    
_QSDIRC=  0.000000000000000    
_PROGRAM=HF-SCF
_CPUSTEP= 0.3200000000000000    
_SYSSTEP= 0.1000000000000001E-01
_WALLSTEP= 0.3300000000000000    
!DFSCF=  0.000000000000000    
!SCSGRD=  0.000000000000000    
_BASINP=  610.0000000000000    
_CPUTOT=  1.160000000000000    
_CPUSORT= 0.1400000000000000    
_SYSSORT= 0.5000000000000000E-01
_WALLSORT= 0.1799999997019768    
_DFTEXFAC=  1.000000000000000    
_DMX= -3.338154354179174    
_DMY= -3.812499562210533    
_DMZ= 0.8917822046443291    
_DMX_SCF= -3.338154354179174    
_DMY_SCF= -3.812499562210533    
_DMZ_SCF= 0.8917822046443291    
_EHOMO=-0.3206933066954392    
_ELUMO= 0.1073072548234667    
_ENERGY= -321.6451322851394    
_ENUC=  250.4788337959036    
_GRADEXFAC=  9999.000000000000    
_GRADMETHOD=  1.000000000000000    
_NMRMETHOD=  0.000000000000000    
!GRID_FREEZE= -1.000000000000000    
_ITERATIONS=  11.00000000000000    
_LASTNELEC=  48.00000000000000    
_LASTSPIN=  0.000000000000000    
_LASTSYM=  1.000000000000000    
_MPP_PROG=  0.000000000000000    
_NPROC_MPP=  1.000000000000000    
_NPROC_MPPX=  1.000000000000000    
_NPROC_SMP=  1.000000000000000    
_NUMSTEP=  0.000000000000000    
_ORBITAL=  2100.200000000000    
_PI=  3.141592653589793    
_SEIG_MIN= 0.4815913743668280E-02
_SEWPROP=TRUE
_STATUS=  1.000000000000000    
_SYSTOT= 0.7000000000000001E-01
_VERSION=  2012001.000000000    
_WALLTOT=  1.250000000000000    
_DATE=10-Oct-15
_LASTORB=RHF
_MACHINE=Linux-3.2.0-90-generic/sce-chem-c01105(x86_64) 64 bit serial version
_OUTPUT=/home/s1267651/phd_mini_30Sept2015/protein/molpro2/alanine_6-31g_scf.xml
_PGROUP=C1
_TIME=15:48:22
_LIBMOL=/usr/local/molpro/molprop_2012_1_Linux_x86_64_i8/lib/
!VIBCNT=  0.000000000000000    
!RGHFCNT=  0.000000000000000    
!SURFREC=  0.000000000000000    
!POLYREC=  0.000000000000000    
!DIPREC=  0.000000000000000    
!VSCFREC=  0.000000000000000    
!VCIREC=  0.000000000000000    
!PVCIREC=  0.000000000000000    
!VMP2REC=  0.000000000000000    
!VMCSCFREC=  0.000000000000000    
!VMRCIREC=  0.000000000000000    
!VIBINFO=  0.000000000000000    
!GAREC=  0.000000000000000    
!SCFORB=  21002.00000000000    
!NEWMOL= -1.000000000000000    
!NEWSYM= -1.000000000000000    
_SLFILES=slscratch
_NGSSTO=  9.000000000000000    
_SIN=SIN
_COS=COS
_TAN=TAN
_ACOS=ACOS
_ASIN=ASIN
_ATAN=ATAN
_COSH=COSH
_SINH=SINH
_TANH=TANH
_ABS=ABS
_MOD=MOD
_ERF=ERF
_REFC=REFC
_ERFC=ERFC
_HYPOT=HYPOT
_J0=J0
_J1=J1
_JN=JN
_GAMMA=GAMMA
_LGAMMA=LGAMMA
_Y0=Y0
_Y1=Y1
_YN=YN
_EXP=EXP
_LOG=LOG
_LOG10=LOG10
_SQRT=SQRT
_INT=INT
_NINT=NINT
_MAX=MAX
_MIN=MIN
_COSMO=  0.000000000000000    
_COSMOIT=  0.000000000000000    
_COSMOES=  0.000000000000000    
_COSMOEDS=  0.000000000000000    
_COSMOEC=  0.000000000000000    
_COSMOEDCORR=  0.000000000000000    
_FEPSI=  1.000000000000000    
_SL_IsMM=  0.000000000000000    
_SL_NSYM=  1.000000000000000    
_SL_System_BitSw=  0.000000000000000    
_SL_Unique_atoms=  0.000000000000000    
_SL_GRAD=  0.000000000000000    
_SL_MAXUPD_Hess=  5.000000000000000    
_SL_N_PRINT_COD=  5.000000000000000    
_SL_PRINT_CODES=  0.000000000000000    
_SL_BasType=  0.000000000000000    
_SL_Energy_Pred=  0.000000000000000    
_SL_New_Coords=  0.000000000000000    
_SL_Total_Nuclea=  0.000000000000000    
_SL_Highest_Mltp=  0.000000000000000    
_SL_Ref_Geom=  0.000000000000000    
_SL_Symmetry_ope=  1.000000000000000    
_SL_agrad=  0.000000000000000    
_SL_GrdMax=  0.000000000000000    
_SL_GrdNorm=  0.000000000000000    
_SL_GrdRMS=  0.000000000000000    
_SL_Hss_Q=  0.000000000000000    
_SL_Hss_X=  0.000000000000000    
_SL_BMxOld=  0.000000000000000    
_SL_KtB=  0.000000000000000    
!LATTICE= -1.000000000000000    
!NEWLATTICE=  0.000000000000000    
!LATGRAD_VAR=FALSE
!SEW_LATTICE=  1.000000000000000    
!LOCAL=  0.000000000000000    
!SAVEDOM= -1.000000000000000    
!RESTDOM= -1.000000000000000    
!SAVEDOM_HF= -1.000000000000000    
!RESTDOM_HF= -1.000000000000000    
!HESSREC=  0.000000000000000    
!FREQREC=  0.000000000000000    
!NMODREC=  0.000000000000000    
!GTASKS=  0.000000000000000    
!HTASKS=  0.000000000000000    
!THRCHG= 0.1000000000000000    
!DEBUG= -1.000000000000000    
!CFIT_CPHF=  0.000000000000000    
!RDOMAUX_CPHF=  3.000000000000000    
!THRAO_CPHF= 0.1000000000000000E-09
!THRMO_CPHF= 0.1000000000000000E-08
!THROV_CPHF= 0.1000000000000000E-11
!THRSW_CPHF= 0.1000000000000000E-09
!THRPROD_CPHF= 0.1000000000000000E-08
!THRAOPR_CPHF= 0.1000000000000000E-11
!CFIT_SCFGRD=  0.000000000000000    
!RDOMAUX_SCFGRD=  5.000000000000000    
!THRAO_SCFGRD= 0.1000000000000000E-09
!THRMO_SCFGRD= 0.1000000000000000E-08
!THROV_SCFGRD= 0.1000000000000000E-11
!THRSW_SCFGRD= 0.1000000000000000E-09
!THRPROD_SCFGRD= 0.1000000000000000E-08
!THRAOPR_SCFGRD= 0.1000000000000000E-11
!LOCFIT_SCF=  0.000000000000000    
!LOCFIT_MP2= -1.000000000000000    
_RIDOM=  0.000000000000000    
!CC2_METHOD=  0.000000000000000    
_BASIS2006=FALSE
_SVDDEL= -1.000000000000000    
_SVDDELA= -1.000000000000000    
_SVDDELP= -1.000000000000000    
_SVDDELF= -1.000000000000000    
_SVDDELS= -1.000000000000000    
_SVDDEL_ABS= -1.000000000000000    
_SVDDELA_ABS= -1.000000000000000    
_SVDDELP_ABS= -1.000000000000000    
_SVDDELF_ABS= -1.000000000000000    
_SVDDELS_ABS= -1.000000000000000    
_MAXBASIS=  0.000000000000000    
!OPT_CONICAL=  0.000000000000000    
!CLEARSP_JGRID=  0.000000000000000    
_4EXT_NDISKS=  1.000000000000000    
!ZMP=  0.000000000000000    
_MAXIT_ZMP=  500.0000000000000    
_MAXDIS_ZMP=  100.0000000000000    
_ACCU_ZMP=  14.00000000000000    
_SHIFTA_ZMP= -100.0000000000000    
!EMBEDFLAG=  1.000000000000000    
!EMBED=FALSE
!EMBED_F12=FALSE
!EMBEDNUC=  0.000000000000000    
_EMBEDENERGY=  0.000000000000000    
_KSPACETIME=  0.000000000000000    
_RSPACETIME=  0.000000000000000    
!EMBED_DFC=FALSE
!NUM_VOIDS=  0.000000000000000    
_IBODY=  0.000000000000000    
_EMBE_TOTAL=  0.000000000000000    
_EMBE_HF=  0.000000000000000    
_EMBE_CORR=  0.000000000000000    
!EDFT=  0.000000000000000    
_IFASTLATGRAD=  0.000000000000000    
_SINDEX=  0.000000000000000    
TITLE=ALANINE
BSET=6-31G
GX1=-0.1340000000000000    
GY1=-0.4700000000000000E-01
GZ1=-0.1010000000000000    
GX2= -1.379000000000000    
GY2= 0.8060000000000000    
GZ2= 0.1220000000000000    
GX3=-0.9300000000000000E-01
GY3= -1.143000000000000    
GZ3= 0.9150000000000000    
GX4=  1.098000000000000    
GY4= 0.8139999999999999    
GZ4= 0.3800000000000000E-01
GX5=  1.870000000000000    
GY5= 0.9310000000000003    
GZ5=-0.9000000000000002    
GX6=  1.332000000000000    
GY6=  1.418000000000000    
GZ6=  1.131000000000000    
GX7=-0.1640000000000000    
GY7=-0.4790000000000000    
GZ7= -1.099000000000000    
GX8= -2.267000000000000    
GY8= 0.1850000000000001    
GZ8= 0.2200000000000001E-01
GX9= -1.409000000000000    
GY9=  1.604000000000001    
GZ9=-0.6170000000000000    
GX10= -1.349000000000000    
GY10=  1.238000000000000    
GZ10=  1.120000000000001    
GX11=-0.9370000000000001    
GY11= -1.734000000000000    
GZ11= 0.8200000000000000    
GX12= 0.7520000000000000    
GY12= -1.722000000000000    
GZ12= 0.7640000000000000    
GX13=-0.6400000000000000E-01
GY13=-0.7330000000000000    
GZ13=  1.865000000000000    
STR=../input/ALANINE_6-31G_scf.mld
[Atoms] Angs
C     1    6        -0.1340000000       -0.0470000000       -0.1010000000
C     2    6        -1.3790000000        0.8060000000        0.1220000000
N     3    7        -0.0930000000       -1.1430000000        0.9150000000
C     4    6         1.0980000000        0.8140000000        0.0380000000
O     5    8         1.8700000000        0.9310000000       -0.9000000000
O     6    8         1.3320000000        1.4180000000        1.1310000000
H     7    1        -0.1640000000       -0.4790000000       -1.0990000000
H     8    1        -2.2670000000        0.1850000000        0.0220000000
H     9    1        -1.4090000000        1.6040000000       -0.6170000000
H    10    1        -1.3490000000        1.2380000000        1.1200000000
H    11    1        -0.9370000000       -1.7340000000        0.8200000000
H    12    1         0.7520000000       -1.7220000000        0.7640000000
H    13    1        -0.0640000000       -0.7330000000        1.8650000000
[GTO]
  1 0
 s    6  1.00
  0.3047524900D+04  0.1834737091D-02
  0.4573695200D+03  0.1403732293D-01
  0.1039486800D+03  0.6884262165D-01
  0.2921015500D+02  0.2321844388D+00
  0.9286663000D+01  0.4679413476D+00
  0.3163927000D+01  0.3623119882D+00
 s    3  1.00
  0.7868272300D+01 -0.1193324245D+00
  0.1881288500D+01 -0.1608541561D+00
  0.5442492600D+00  0.1143456443D+01
 s    1  1.00
  0.1687144800D+00  0.1000000000D+01
 p    3  1.00
  0.7868272300D+01  0.6899906693D-01
  0.1881288500D+01  0.3164239597D+00
  0.5442492600D+00  0.7443082892D+00
 p    1  1.00
  0.1687144800D+00  0.1000000000D+01
  
  2 0
 s    6  1.00
  0.3047524900D+04  0.1834737091D-02
  0.4573695200D+03  0.1403732293D-01
  0.1039486800D+03  0.6884262165D-01
  0.2921015500D+02  0.2321844388D+00
  0.9286663000D+01  0.4679413476D+00
  0.3163927000D+01  0.3623119882D+00
 s    3  1.00
  0.7868272300D+01 -0.1193324245D+00
  0.1881288500D+01 -0.1608541561D+00
  0.5442492600D+00  0.1143456443D+01
 s    1  1.00
  0.1687144800D+00  0.1000000000D+01
 p    3  1.00
  0.7868272300D+01  0.6899906693D-01
  0.1881288500D+01  0.3164239597D+00
  0.5442492600D+00  0.7443082892D+00
 p    1  1.00
  0.1687144800D+00  0.1000000000D+01
  
  3 0
 s    6  1.00
  0.4173511500D+04  0.1834772199D-02
  0.6274579100D+03  0.1399462699D-01
  0.1429020900D+03  0.6858655195D-01
  0.4023432900D+02  0.2322408698D+00
  0.1282021300D+02  0.4690699496D+00
  0.4390437000D+01  0.3604551997D+00
 s    3  1.00
  0.1162636200D+02 -0.1149611854D+00
  0.2716279800D+01 -0.1691174879D+00
  0.7722184000D+00  0.1145851954D+01
 s    1  1.00
  0.2120315000D+00  0.1000000000D+01
 p    3  1.00
  0.1162636200D+02  0.6757974372D-01
  0.2716279800D+01  0.3239072986D+00
  0.7722184000D+00  0.7408951369D+00
 p    1  1.00
  0.2120315000D+00  0.1000000000D+01
  
  4 0
 s    6  1.00
  0.3047524900D+04  0.1834737091D-02
  0.4573695200D+03  0.1403732293D-01
  0.1039486800D+03  0.6884262165D-01
  0.2921015500D+02  0.2321844388D+00
  0.9286663000D+01  0.4679413476D+00
  0.3163927000D+01  0.3623119882D+00
 s    3  1.00
  0.7868272300D+01 -0.1193324245D+00
  0.1881288500D+01 -0.1608541561D+00
  0.5442492600D+00  0.1143456443D+01
 s    1  1.00
  0.1687144800D+00  0.1000000000D+01
 p    3  1.00
  0.7868272300D+01  0.6899906693D-01
  0.1881288500D+01  0.3164239597D+00
  0.5442492600D+00  0.7443082892D+00
 p    1  1.00
  0.1687144800D+00  0.1000000000D+01
  
  5 0
 s    6  1.00
  0.5484671700D+04  0.1831074396D-02
  0.8252349500D+03  0.1395017197D-01
  0.1880469600D+03  0.6844507786D-01
  0.5296450000D+02  0.2327143395D+00
  0.1689757000D+02  0.4701928990D+00
  0.5799635300D+01  0.3585208493D+00
 s    3  1.00
  0.1553961600D+02 -0.1107775519D+00
  0.3599933600D+01 -0.1480262626D+00
  0.1013761800D+01  0.1130767020D+01
 s    1  1.00
  0.2700058200D+00  0.1000000000D+01
 p    3  1.00
  0.1553961600D+02  0.7087426737D-01
  0.3599933600D+01  0.3397528370D+00
  0.1013761800D+01  0.7271585736D+00
 p    1  1.00
  0.2700058200D+00  0.1000000000D+01
  
  6 0
 s    6  1.00
  0.5484671700D+04  0.1831074396D-02
  0.8252349500D+03  0.1395017197D-01
  0.1880469600D+03  0.6844507786D-01
  0.5296450000D+02  0.2327143395D+00
  0.1689757000D+02  0.4701928990D+00
  0.5799635300D+01  0.3585208493D+00
 s    3  1.00
  0.1553961600D+02 -0.1107775519D+00
  0.3599933600D+01 -0.1480262626D+00
  0.1013761800D+01  0.1130767020D+01
 s    1  1.00
  0.2700058200D+00  0.1000000000D+01
 p    3  1.00
  0.1553961600D+02  0.7087426737D-01
  0.3599933600D+01  0.3397528370D+00
  0.1013761800D+01  0.7271585736D+00
 p    1  1.00
  0.2700058200D+00  0.1000000000D+01
  
  7 0
 s    3  1.00
  0.1873113700D+02  0.3349460400D-01
  0.2825394400D+01  0.2347269500D+00
  0.6401216900D+00  0.8137573301D+00
 s    1  1.00
  0.1612777600D+00  0.1000000000D+01
  
  8 0
 s    3  1.00
  0.1873113700D+02  0.3349460400D-01
  0.2825394400D+01  0.2347269500D+00
  0.6401216900D+00  0.8137573301D+00
 s    1  1.00
  0.1612777600D+00  0.1000000000D+01
  
  9 0
 s    3  1.00
  0.1873113700D+02  0.3349460400D-01
  0.2825394400D+01  0.2347269500D+00
  0.6401216900D+00  0.8137573301D+00
 s    1  1.00
  0.1612777600D+00  0.1000000000D+01
  
 10 0
 s    3  1.00
  0.1873113700D+02  0.3349460400D-01
  0.2825394400D+01  0.2347269500D+00
  0.6401216900D+00  0.8137573301D+00
 s    1  1.00
  0.1612777600D+00  0.1000000000D+01
  
 11 0
 s    3  1.00
  0.1873113700D+02  0.3349460400D-01
  0.2825394400D+01  0.2347269500D+00
  0.6401216900D+00  0.8137573301D+00
 s    1  1.00
  0.1612777600D+00  0.1000000000D+01
  
 12 0
 s    3  1.00
  0.1873113700D+02  0.3349460400D-01
  0.2825394400D+01  0.2347269500D+00
  0.6401216900D+00  0.8137573301D+00
 s    1  1.00
  0.1612777600D+00  0.1000000000D+01
  
 13 0
 s    3  1.00
  0.1873113700D+02  0.3349460400D-01
  0.2825394400D+01  0.2347269500D+00
  0.6401216900D+00  0.8137573301D+00
 s    1  1.00
  0.1612777600D+00  0.1000000000D+01
 
 
[MO]
 Sym=      1.1
 Ene=     -20.4535
 Spin= Alpha
 Occup=    2.000000
1 -0.000048618879071
2 -0.000617629509762
3 0.002612443753547
4 -0.000015807313999
5 -0.000085087592836
6 -0.000128333873535
7 -0.000737960739893
8 0.000852319240627
9 0.003206379818993
10 0.000000426887960
11 -0.000058363842324
12 -0.001151266347197
13 -0.000099278556792
14 0.000045448643223
15 -0.000018887745634
16 -0.000191588272146
17 0.000826830912478
18 -0.000542435855200
19 0.000008783886546
20 0.000054189293303
21 -0.001097969785664
22 -0.000053556194130
23 -0.000022029225310
24 0.000017878465430
25 0.000693454205055
26 -0.000627630624463
27 0.000080448057029
28 0.000157623321427
29 0.000225020659402
30 0.005650696686137
31 -0.000040021608261
32 -0.000021996439085
33 0.000002563267554
34 0.005088053629244
35 0.000495387065853
36 -0.006837135642234
37 0.99586179945393
38 0.023398602257221
39 -0.015250585862914
40 -0.001568191038414
41 -0.000342081414370
42 0.001689855221348
43 0.003162565390875
44 0.000550197991633
45 -0.003686658865525
46 -0.003350316558518
47 -0.000557111458417
48 0.001947792440402
49 0.000071928233049
50 0.000084391125175
51 0.000088526212806
52 -0.001106398351403
53 -0.000728140422082
54 -0.000016888381703
55 0.000131279040605
56 0.001097904325355
57 0.000082060954490
58 0.000270213904168
59 0.000025480307783
60 -0.000585746159631
61 0.000007114397560
62 0.000342192489543
63 0.000105525703870
64 0.000170845130705
65 -0.000016152697764
66 -0.000519185845195
67 0.000019410767364
68 0.000280067704674
 Sym=      2.1
 Ene=     -20.4422
 Spin= Alpha
 Occup=    2.000000
1 -0.000068947655914
2 -0.000757187354382
3 0.003688240573764
4 -0.000222732752706
5 -0.000165980840521
6 -0.000011161993118
7 0.002190261621462
8 0.000676169926022
9 -0.001769393445934
10 0.000036757787688
11 0.000306108071303
12 -0.000622476890693
13 0.000006704030656
14 0.000022882749164
15 -0.000010385947111
16 -0.000603520610484
17 -0.000773100363741
18 0.000354415923900
19 0.000020803696968
20 0.000233344708899
21 -0.000384151387731
22 0.000083753795620
23 0.000025706341680
24 -0.000013299764768
25 -0.000938660543421
26 -0.000179291079304
27 0.000129511954277
28 0.000115324328327
29 -0.000028643963990
30 0.004139436151395
31 0.000086228435539
32 0.000071417157116
33 0.000038554935161
34 0.001688572275922
35 0.004171595236838
36 0.007334627465948
37 0.003318090039834
38 -0.000404938519991
39 0.001882709928756
40 0.000108722029424
41 0.000058318758375
42 -0.000032437586498
43 -0.001115614205682
44 -0.000907662271791
45 -0.000410183370079
46 0.99588295674114
47 0.023187656887568
48 -0.014586368356628
49 -0.000596136431938
50 -0.001188561826855
51 -0.001799146634954
52 0.000981326537688
53 0.002370279633394
54 0.004129212399037
55 -0.000407843598068
56 -0.000431127462889
57 -0.000057455388393
58 -0.000240843387855
59 0.000180524014802
60 0.000423960936741
61 0.000011144268993
62 0.000137332915301
63 -0.000097573853272
64 -0.000196763114085
65 0.000242207549177
66 0.000178767260318
67 0.000020911344771
68 0.000048377848960
 Sym=      3.1
 Ene=     -15.7578
 Spin= Alpha
 Occup=    2.000000
1 -0.000007095950422
2 -0.000522414931118
3 0.004077513386298
4 -0.000020463222276
5 -0.000206348840875
6 0.000116010503660
7 0.000054542027461
8 -0.001680555806809
9 0.001355135864766
10 -0.000017595783129
11 -0.000283859159217
12 0.000227214795720
13 -0.000055729682321
14 0.000160188329162
15 -0.000069409487799
16 -0.000302220018811
17 -0.000300884071014
18 0.000268428023102
19 0.99604683550230
20 0.024337735803900
21 -0.014186027684154
22 -0.000047177476499
23 -0.000158543165830
24 0.000045130295431
25 0.000045645067765
26 -0.000934986973690
27 0.000855718449506
28 -0.000022611283818
29 -0.000329213846337
30 0.000410666240155
31 0.000158983462424
32 0.000136688720476
33 -0.000019859289039
34 -0.000419294668018
35 0.000053352467341
36 0.000436773712376
37 -0.000003179344096
38 -0.000021764808621
39 0.000276733333514
40 -0.000000989508839
41 -0.000037374393581
42 0.000017867578784
43 -0.000053409850608
44 0.000082631357642
45 -0.000021788351583
46 0.000008717337017
47 0.000159872612730
48 -0.000616884528382
49 -0.000035145266479
50 0.000000984573599
51 0.000003714555414
52 0.000263155012082
53 0.000178778008628
54 0.000075775135197
55 -0.000234070623515
56 -0.000241509363910
57 -0.000041173241514
58 -0.000510958422424
59 0.000002985172887
60 0.000436901243334
61 -0.000023592422608
62 -0.000324386019528
63 0.000287421435221
64 0.001902922129296
65 0.000318613101039
66 0.001841836563753
67 0.000317250994758
68 0.001894810059652
 Sym=      4.1
 Ene=     -11.3229
 Spin= Alpha
 Occup=    2.000000
1 0.99598609641781
2 0.027086314133843
3 -0.024578395000361
4 -0.000252030816536
5 -0.000764160398105
6 0.000845699221007
7 0.000083356908576
8 -0.001140544064361
9 -0.002397499237465
10 0.004697870439990
11 -0.000415549999419
12 0.006151694730453
13 0.000169646192518
14 -0.000045006456735
15 -0.000008974671613
16 0.002418250005352
17 -0.001946708759292
18 0.000085994849544
19 -0.000096723044226
20 -0.000148430370701
21 0.003704952834890
22 0.000011433837804
23 -0.000019533695307
24 0.000073024965397
25 -0.000167102512631
26 0.001734522833228
27 -0.001387237672945
28 0.028005904285515
29 0.000053035435841
30 0.005320704667448
31 -0.000149828401589
32 -0.000061906964064
33 -0.000012138210826
34 -0.003416857539334
35 -0.002276142100192
36 0.000474181192472
37 -0.000020616142851
38 -0.000324742784904
39 0.001023619132406
40 0.000026068348777
41 -0.000006267937693
42 -0.000039142835932
43 0.000055596163069
44 0.000304151767046
45 0.000437450976998
46 -0.000011739443933
47 -0.000276221782673
48 0.000295405075337
49 0.000051256216063
50 0.000062116751668
51 0.000048863233862
52 0.000191614402828
53 0.000040785494682
54 -0.000233800570191
55 0.000290181335768
56 0.003027049186967
57 -0.000222248442750
58 -0.000140628981678
59 -0.000129821311232
60 0.000146865763285
61 -0.000247830598106
62 -0.000054372309985
63 -0.000036756865768
64 0.000315171162897
65 -0.000004494376539
66 0.000363147485014
67 -0.000025233961541
68 0.000455511675733
 Sym=      5.1
 Ene=     -11.3119
 Spin= Alpha
 Occup=    2.000000
1 -0.028184818401619
2 -0.001062211973932
3 0.004652722263281
4 -0.000028029686894
5 0.000035008340429
6 -0.000030614493155
7 0.002750619856019
8 0.001433456889207
9 -0.000136166199872
10 -0.000363265966143
11 -0.000623388949014
12 0.001376055671989
13 -0.000239062484885
14 -0.000079603162075
15 -0.000004229436768
16 0.001570984484376
17 0.000459597929262
18 0.000165367051653
19 -0.000023003992551
20 -0.000373637458275
21 0.000503257805058
22 -0.000141476061679
23 -0.000185261513951
24 0.000041522268859
25 0.000724885887606
26 0.000940380610316
27 -0.000067993074483
28 0.99576490250135
29 0.024826848308128
30 -0.011487155442207
31 -0.000248464058763
32 -0.000255811371239
33 -0.000204784329064
34 0.004890989047055
35 0.002932201132196
36 -0.000346084506883
37 -0.000343071866943
38 0.000359917009198
39 -0.001115675875078
40 -0.000148504193674
41 0.000021487321413
42 0.000320182264305
43 0.000089865183635
44 -0.000443457401375
45 -0.001360803673154
46 -0.000250277464895
47 0.000030719185727
48 0.000437956044077
49 0.000044281981854
50 -0.000051619991106
51 -0.000217311244328
52 -0.000862517760038
53 -0.000229821102456
54 0.000823678209822
55 -0.000124127923895
56 0.000073677175953
57 0.000071483774942
58 0.000869977314440
59 -0.000278924197795
60 -0.000032880407362
61 -0.000218940666916
62 -0.000277149401595
63 0.000181211565310
64 0.000601938859321
65 -0.000272835808204
66 0.000217463988756
67 -0.000241158449353
68 0.000003574451324
 Sym=      6.1
 Ene=     -11.2605
 Spin= Alpha
 Occup=    2.000000
1 -0.004830738146224
2 -0.000155599822661
3 0.001888136051774
4 -0.000017361387643
5 -0.000015650439264
6 0.000026758112065
7 -0.001992116104556
8 0.000849097605231
9 -0.000773449273986
10 0.99620631135177
11 0.026164909060723
12 -0.018119966341792
13 0.000234235326941
14 -0.000337421916021
15 0.000003449185897
16 -0.000936107290591
17 0.000483537873081
18 0.000112948222519
19 -0.000024832407592
20 -0.000361481465066
21 0.001097422045023
22 0.000150201447535
23 -0.000091957212293
24 -0.000003115878329
25 -0.000849357343647
26 0.000714027450047
27 0.000013468320437
28 0.000104230433145
29 -0.000556844703182
30 0.001859622576069
31 0.000125735018595
32 0.000033337946522
33 -0.000008300514237
34 -0.001445045627054
35 -0.000209591218291
36 0.001087549920106
37 -0.000007680536460
38 -0.000094765042185
39 0.000727799454332
40 -0.000051003097808
41 0.000016192120188
42 -0.000012618261111
43 0.000129142188005
44 -0.000099848919265
45 0.000201535670573
46 0.000011207329781
47 0.000131490823285
48 -0.000944782753077
49 0.000018781330009
50 -0.000012566573886
51 0.000030451372288
52 0.000312432044026
53 0.000249840941479
54 0.000101293802329
55 -0.000149784693745
56 -0.000024898210350
57 -0.000002450195388
58 0.003070002494991
59 0.000110817430757
60 0.003071455493002
61 0.000091441459026
62 0.003235832236734
63 -0.000203076396400
64 -0.000298508219163
65 0.000120909419463
66 0.000589429749521
67 -0.000188547094212
68 -0.000215142629661
 Sym=      7.1
 Ene=      -1.3861
 Spin= Alpha
 Occup=    2.000000
1 -0.071021427262640
2 0.13707281905130
3 0.051895972977631
4 0.014898850161808
5 -0.034234213584455
6 0.045944861639167
7 -0.004223269120671
8 0.012486008521529
9 -0.010806954664567
10 -0.017875845848565
11 0.036970155924756
12 0.009057130805079
13 0.016488035271798
14 -0.014403915689281
15 0.001901355756389
16 -0.001764028334348
17 0.001641511537282
18 0.000391366967480
19 -0.16846246373644
20 0.34916916734726
21 0.40969759068867
22 -0.000644479827887
23 0.009362403352022
24 -0.008393495242317
25 -0.003403858070398
26 0.006764327507387
27 -0.008699054759806
28 -0.075404216940943
29 0.15859363725053
30 0.013283764288131
31 0.025898788562409
32 0.007853637027327
33 -0.008083516360066
34 -0.019298517215620
35 -0.016579294747440
36 0.000454763159359
37 -0.066804319505989
38 0.14539705641849
39 0.14319963486617
40 -0.038673936566327
41 -0.007090862405812
42 0.046938048332378
43 -0.014215639914173
44 -0.001795838468877
45 0.020451287122098
46 -0.054518417922514
47 0.11701820562388
48 0.12220343155960
49 -0.009382117824462
50 -0.025167914804768
51 -0.040943959169134
52 -0.004177257191714
53 -0.011908107114251
54 -0.019745017153933
55 0.025886831599003
56 -0.003150225775555
57 0.007557175214957
58 0.003516000755603
59 0.005523709945891
60 -0.002341243810446
61 0.008539511767959
62 0.002273644368573
63 0.090767112704051
64 -0.011102482542354
65 0.089778682720879
66 -0.009672618096401
67 0.089279890142687
68 -0.013853244941622
 Sym=      8.1
 Ene=      -1.3526
 Spin= Alpha
 Occup=    2.000000
1 0.011896112972959
2 -0.020995029717191
3 -0.016209504733248
4 0.026081811344309
5 0.046893364842628
6 -0.026629479747283
7 -0.004481186268752
8 -0.015047527663530
9 0.001809084660570
10 0.003333352065660
11 -0.006645047643579
12 -0.001894184944206
13 -0.000489717778234
14 0.006886194277748
15 -0.001764246492709
16 -0.002281744442523
17 -0.001608126668469
18 0.000504174260499
19 0.10526070281151
20 -0.21749792594780
21 -0.26762313381527
22 0.005305796204377
23 0.008084453756178
24 -0.002900246587565
25 0.002472015895299
26 -0.000623130438827
27 0.004865086033281
28 -0.11593813017887
29 0.23674959195888
30 0.038499383524107
31 0.093025979833861
32 0.047897190789970
33 -0.036148517580907
34 -0.053729257731158
35 -0.029906597820432
36 0.011547754307890
37 -0.13405363876360
38 0.29017841694521
39 0.30086945576689
40 -0.071963941735006
41 -0.009893665758308
42 0.091068543901092
43 -0.029181510702299
44 -0.002703280373066
45 0.039751164977745
46 -0.089996117257591
47 0.19607330867821
48 0.19536363550971
49 -0.008797771751149
50 -0.034609020584641
51 -0.070328384601340
52 0.000942310231531
53 -0.013925875724968
54 -0.033527203775769
55 -0.003665888240531
56 -0.002879594282301
57 -0.002933962326076
58 -0.004969300057849
59 -0.000113200746133
60 0.004900810463924
61 -0.000500643246922
62 -0.002686025874850
63 -0.062012975310925
64 0.004849877622185
65 -0.058399390718483
66 0.008334419070589
67 -0.056355405742870
68 0.006318918448165
 Sym=      9.1
 Ene=      -1.2247
 Spin= Alpha
 Occup=    2.000000
1 -0.002385629817083
2 0.006315911370233
3 -0.006352023289233
4 0.000795953188440
5 0.014439800083253
6 0.014173374485850
7 -0.021624669357178
8 -0.001966861269752
9 0.029715348320138
10 -0.005645331787139
11 0.007869777157205
12 0.004361205774199
13 0.004050083604782
14 -0.000008001265501
15 0.002240084002933
16 0.007445954870862
17 0.012198495460072
18 -0.005375311068737
19 0.011150125337089
20 -0.024888216307727
21 -0.036373170196282
22 0.001365678342581
23 0.010283747713281
24 0.000053504076572
25 0.014642284741345
26 0.005377414771546
27 0.000022592625035
28 -0.015725446943634
29 0.033387119590717
30 0.017622522873365
31 -0.063320057323362
32 0.062293771844773
33 0.25154125111132
34 0.006111110494486
35 -0.022994081106653
36 -0.062397256043639
37 0.12977478247739
38 -0.27927073511706
39 -0.31868226987661
40 0.063226228995899
41 0.021262325563809
42 -0.050661400227084
43 0.034626019669401
44 0.015656906604668
45 -0.020982026604389
46 -0.16832002023964
47 0.36021633701565
48 0.41899719548484
49 -0.034576261043695
50 -0.057297867550224
51 -0.080694577700679
52 -0.023819388600144
53 -0.036324352039076
54 -0.043773077010684
55 -0.003005161574655
56 0.001623680523522
57 0.002538161612416
58 0.005255642343640
59 0.001529983409727
60 -0.007653276862458
61 0.003729044001802
62 0.005791062396393
63 -0.008415807120210
64 0.004326661032939
65 -0.009898263916442
66 -0.005255350112820
67 -0.005173837611107
68 0.007677951391278
 Sym=     10.1
 Ene=      -1.0831
 Spin= Alpha
 Occup=    2.000000
1 -0.13856871875774
2 0.26054123083194
3 0.29517235974612
4 -0.048886612166381
5 0.055714429071921
6 -0.006559231253555
7 -0.008515278231311
8 0.003173833152467
9 0.017457243787248
10 -0.13662463006130
11 0.25899680757954
12 0.22466927959308
13 0.050046897617807
14 -0.036053577190376
15 -0.010004337705906
16 -0.002216620304440
17 -0.004348333158300
18 -0.001902015487494
19 0.051641836570332
20 -0.10480826154622
21 -0.19143961524384
22 -0.021110481475787
23 0.11518519960308
24 -0.090621148879583
25 -0.007167681351075
26 0.041847113527234
27 -0.032310648630102
28 -0.015790837468641
29 0.039069954048918
30 -0.001746855707393
31 -0.095034817561684
32 -0.058074592762369
33 -0.016077343940275
34 0.007790827745292
35 0.005819363336731
36 -0.008698533169473