[Molden Format]
[Molpro variables]
_NUMVAR=  860.0000000000000    
_AVOGAD= 0.6022136736000000E+24
_BOLTZ= 0.1380658000000000E-22
_CLIGHT=  29979245800.00000    
_EV2006= 0.3674930886769165E-01
_EV= 0.3674932534394180E-01
_ENULL= 0.8854187817000000E-11
_KJOULE= 0.3808798324128737E-03
_KJOULE/MOL= 0.3808798324128737E-03
_CM= 0.4556335267302901E-05
_CM-1= 0.4556335267302901E-05
_DEB2SI= 0.3335641000000000E-29
_AMU2AU=  1822.888390000000    
_KCAL= 0.1593601117815568E-02
_KCAL/MOL= 0.1593601117815568E-02
_KELVIN2006= 0.3166828861084835E-05
_KELVIN= 0.3166814820820034E-05
_JOULE= 0.4359748200000000E-17
_HERTZ2006= 0.1519829850815779E-15
_HERTZ= 0.1519829846011223E-15
_HZ2006= 0.1519829850815779E-15
_HZ= 0.1519829846011223E-15
_JPCAL=  4.184000000000000    
_PLANCK= 0.6626075540000000E-33
_TOA2006= 0.5291772490000000    
_TOA= 0.5291772090000000    
_TOANG2006= 0.5291772490000000    
_TOANG= 0.5291772090000000    
_TORAD= 0.1745329251994330E-01
_TOCM=  219474.6306700000    
_TODEBYE=  2.541580000000000    
_TOEV2006=  27.21139610000000    
_TOE= 0.4803242000000000E-09
_TOEV=  27.21138390000000    
_TOHERTZ2006=  6579683899900000.    
_TOHERTZ=  6579683920700000.    
_TOHZ2006=  6579683899900000.    
_TOHZ=  6579683920700000.    
_TOK2006=  315773.3000000000    
_TOK=  315774.7000000000    
_TOKCAL=  627.5096000000000    
_TOKELVIN2006=  315773.3000000000    
_TOKELVIN=  315774.7000000000    
_TOKJ=  2625.500000000000    
_TOKJOULE=  2625.500000000000    
_TOKG= 0.1660565586000000E-26
_ANG2006=  1.889725988578923    
_ANG=  1.889726131421507    
_ANGSTROM2006=  1.889725988578923    
_ANGSTROM=  1.889726131421507    
_RPAREF=  0.000000000000000    
_RPADISS=  0.000000000000000    
_IGNORE_UNDEF=  2.000000000000000    
_STRICTCHECK=  0.000000000000000    
_SEW_ONEEL=  0.000000000000000    
_CPPDONE=FALSE
_DKROLL_DONE=  0.000000000000000    
_FOCKDONE=TRUE
_GRADONE=FALSE
_HESSDONE=FALSE
_INTDONE=TRUE
_SCFDONE=TRUE
_MODUL_BLOCK=FALSE
_MODUL_CUDA=FALSE
_MODUL_SLATER=FALSE
_MODUL_MRCC=FALSE
_MODUL_NBO6=FALSE
_MODUL_NECI=TRUE
_MODUL_AIMS=TRUE
_MRCC_EXEC=
_FITC_AO_SAVED=FALSE
_FITC_MO_SAVED=FALSE
_SHARED_FS=TRUE
_LSTYP=SEWARD
_INTYP=INTS
_GEOMTYP=ZMAT
_GRADTYP=ALASKA
_DIRECT=FALSE
_DKHO= -1.000000000000000    
_SYNCM=  0.000000000000000    
_BASIS=$BSET
_ZORIENT=  1.000000000000000    
_NELEC=  95.00000000000000    
!SPIN=  1.000000000000000    
_QSDSTEP=  0.000000000000000    
_QSDIRC=  0.000000000000000    
_PROGRAM=HF-SCF
_CPUSTEP=  4.710000000000000    
_SYSSTEP= 0.1200000000000000    
_WALLSTEP=  4.830000000000000    
!DFSCF=  0.000000000000000    
!SCSGRD=  0.000000000000000    
_BASINP=  610.0000000000000    
_CPUTOT=  10.85000000000000    
_CPUSORT=  1.020000000000000    
_SYSSORT= 0.3200000000000000    
_WALLSORT=  1.350000001490116    
_DFTEXFAC=  1.000000000000000    
_DMX= -3.095311936545713    
_DMY=  3.529339168715161    
_DMZ= -2.168282581011965    
_DMX_SCF= -3.095311936545713    
_DMY_SCF=  3.529339168715161    
_DMZ_SCF= -2.168282581011965    
_EHOMO=-0.2295146273151267    
_ELUMO= 0.1163149982909710    
_ENERGY= -603.0151205703769    
_ENUC=  725.6099276705196    
_GRADEXFAC=  9999.000000000000    
_GRADMETHOD=  2.000000000000000    
_NMRMETHOD=  0.000000000000000    
!GRID_FREEZE= -1.000000000000000    
_ITERATIONS=  12.00000000000000    
_LASTNELEC=  95.00000000000000    
_LASTSPIN=  1.000000000000000    
_LASTSYM=  1.000000000000000    
_MPP_PROG=  0.000000000000000    
_NPROC_MPP=  1.000000000000000    
_NPROC_MPPX=  1.000000000000000    
_NPROC_SMP=  1.000000000000000    
_NUMSTEP=  0.000000000000000    
_ORBITAL=  2100.200000000000    
_PI=  3.141592653589793    
_SEIG_MIN= 0.2887157221358912E-02
_SEWPROP=TRUE
_STATUS=  1.000000000000000    
_SYSTOT= 0.5100000000000000    
_VERSION=  2012001.000000000    
_WALLTOT=  11.37000000000000    
_DATE=23-Sep-15
_LASTORB=RHF
_MACHINE=Linux-3.2.0-90-generic/sce-chem-c01105(x86_64) 64 bit serial version
_OUTPUT=/home/s1267651/phd_mini_19Sept2015/protein/molpro2/arginine_6-31g_scf.xml
_PGROUP=C1
_TIME=17:49:53
_LIBMOL=/usr/local/molpro/molprop_2012_1_Linux_x86_64_i8/lib/
!VIBCNT=  0.000000000000000    
!RGHFCNT=  0.000000000000000    
!SURFREC=  0.000000000000000    
!POLYREC=  0.000000000000000    
!DIPREC=  0.000000000000000    
!VSCFREC=  0.000000000000000    
!VCIREC=  0.000000000000000    
!PVCIREC=  0.000000000000000    
!VMP2REC=  0.000000000000000    
!VMCSCFREC=  0.000000000000000    
!VMRCIREC=  0.000000000000000    
!VIBINFO=  0.000000000000000    
!GAREC=  0.000000000000000    
!SCFORB=  21002.00000000000    
!NEWMOL= -1.000000000000000    
!NEWSYM= -1.000000000000000    
_SLFILES=slscratch
_NGSSTO=  9.000000000000000    
_SIN=SIN
_COS=COS
_TAN=TAN
_ACOS=ACOS
_ASIN=ASIN
_ATAN=ATAN
_COSH=COSH
_SINH=SINH
_TANH=TANH
_ABS=ABS
_MOD=MOD
_ERF=ERF
_REFC=REFC
_ERFC=ERFC
_HYPOT=HYPOT
_J0=J0
_J1=J1
_JN=JN
_GAMMA=GAMMA
_LGAMMA=LGAMMA
_Y0=Y0
_Y1=Y1
_YN=YN
_EXP=EXP
_LOG=LOG
_LOG10=LOG10
_SQRT=SQRT
_INT=INT
_NINT=NINT
_MAX=MAX
_MIN=MIN
_COSMO=  0.000000000000000    
_COSMOIT=  0.000000000000000    
_COSMOES=  0.000000000000000    
_COSMOEDS=  0.000000000000000    
_COSMOEC=  0.000000000000000    
_COSMOEDCORR=  0.000000000000000    
_FEPSI=  1.000000000000000    
_SL_IsMM=  0.000000000000000    
_SL_NSYM=  1.000000000000000    
_SL_System_BitSw=  0.000000000000000    
_SL_Unique_atoms=  0.000000000000000    
_SL_GRAD=  0.000000000000000    
_SL_MAXUPD_Hess=  5.000000000000000    
_SL_N_PRINT_COD=  5.000000000000000    
_SL_PRINT_CODES=  0.000000000000000    
_SL_BasType=  0.000000000000000    
_SL_Energy_Pred=  0.000000000000000    
_SL_New_Coords=  0.000000000000000    
_SL_Total_Nuclea=  0.000000000000000    
_SL_Highest_Mltp=  0.000000000000000    
_SL_Ref_Geom=  0.000000000000000    
_SL_Symmetry_ope=  1.000000000000000    
_SL_agrad=  0.000000000000000    
_SL_GrdMax=  0.000000000000000    
_SL_GrdNorm=  0.000000000000000    
_SL_GrdRMS=  0.000000000000000    
_SL_Hss_Q=  0.000000000000000    
_SL_Hss_X=  0.000000000000000    
_SL_BMxOld=  0.000000000000000    
_SL_KtB=  0.000000000000000    
!LATTICE= -1.000000000000000    
!NEWLATTICE=  0.000000000000000    
!LATGRAD_VAR=FALSE
!SEW_LATTICE=  1.000000000000000    
!LOCAL=  0.000000000000000    
!SAVEDOM= -1.000000000000000    
!RESTDOM= -1.000000000000000    
!SAVEDOM_HF= -1.000000000000000    
!RESTDOM_HF= -1.000000000000000    
!HESSREC=  0.000000000000000    
!FREQREC=  0.000000000000000    
!NMODREC=  0.000000000000000    
!GTASKS=  0.000000000000000    
!HTASKS=  0.000000000000000    
!THRCHG= 0.1000000000000000    
!DEBUG= -1.000000000000000    
!CFIT_CPHF=  0.000000000000000    
!RDOMAUX_CPHF=  3.000000000000000    
!THRAO_CPHF= 0.1000000000000000E-09
!THRMO_CPHF= 0.1000000000000000E-08
!THROV_CPHF= 0.1000000000000000E-11
!THRSW_CPHF= 0.1000000000000000E-09
!THRPROD_CPHF= 0.1000000000000000E-08
!THRAOPR_CPHF= 0.1000000000000000E-11
!CFIT_SCFGRD=  0.000000000000000    
!RDOMAUX_SCFGRD=  5.000000000000000    
!THRAO_SCFGRD= 0.1000000000000000E-09
!THRMO_SCFGRD= 0.1000000000000000E-08
!THROV_SCFGRD= 0.1000000000000000E-11
!THRSW_SCFGRD= 0.1000000000000000E-09
!THRPROD_SCFGRD= 0.1000000000000000E-08
!THRAOPR_SCFGRD= 0.1000000000000000E-11
!LOCFIT_SCF=  0.000000000000000    
!LOCFIT_MP2= -1.000000000000000    
_RIDOM=  0.000000000000000    
!CC2_METHOD=  0.000000000000000    
_BASIS2006=FALSE
_SVDDEL= -1.000000000000000    
_SVDDELA= -1.000000000000000    
_SVDDELP= -1.000000000000000    
_SVDDELF= -1.000000000000000    
_SVDDELS= -1.000000000000000    
_SVDDEL_ABS= -1.000000000000000    
_SVDDELA_ABS= -1.000000000000000    
_SVDDELP_ABS= -1.000000000000000    
_SVDDELF_ABS= -1.000000000000000    
_SVDDELS_ABS= -1.000000000000000    
_MAXBASIS=  0.000000000000000    
!OPT_CONICAL=  0.000000000000000    
!CLEARSP_JGRID=  0.000000000000000    
_4EXT_NDISKS=  1.000000000000000    
!ZMP=  0.000000000000000    
_MAXIT_ZMP=  500.0000000000000    
_MAXDIS_ZMP=  100.0000000000000    
_ACCU_ZMP=  14.00000000000000    
_SHIFTA_ZMP= -100.0000000000000    
!EMBEDFLAG=  1.000000000000000    
!EMBED=FALSE
!EMBED_F12=FALSE
!EMBEDNUC=  0.000000000000000    
_EMBEDENERGY=  0.000000000000000    
_KSPACETIME=  0.000000000000000    
_RSPACETIME=  0.000000000000000    
!EMBED_DFC=FALSE
!NUM_VOIDS=  0.000000000000000    
_IBODY=  0.000000000000000    
_EMBE_TOTAL=  0.000000000000000    
_EMBE_HF=  0.000000000000000    
_EMBE_CORR=  0.000000000000000    
!EDFT=  0.000000000000000    
_IFASTLATGRAD=  0.000000000000000    
_SINDEX=  0.000000000000000    
TITLE=ARGININE
BSET=6-31G
GX1=  2.807000000000000    
GY1= 0.2200000000000001E-01
GZ1=  1.011000000000000    
GX2=  1.442000000000000    
GY2=-0.6250000000000000    
GZ2= 0.7850000000000000    
GX3= 0.3740000000000000    
GY3= 0.4630000000000002    
GZ3= 0.6790000000000000    
GX4=-0.9920000000000000    
GY4=-0.1830000000000000    
GZ4= 0.4540000000000000    
GX5= -2.019000000000000    
GY5= 0.8630000000000000    
GZ5= 0.3520000000000001    
GX6= -3.234000000000000    
GY6= 0.2880000000000000    
GZ6= 0.1510000000000000    
GX7= -4.307000000000000    
GY7=  1.041000000000000    
GZ7= 0.3000000000000000E-01
GX8= -3.342000000000001    
GY8= -1.066000000000000    
GZ8= 0.7600000000000000E-01
GX9=  3.128000000000000    
GY9= 0.9240000000000000    
GZ9=-0.1370000000000000    
GX10=  3.862000000000000    
GY10= -1.054000000000000    
GZ10=  1.116000000000000    
GX11=  4.528000000000000    
GY11= -1.158000000000000    
GZ11=  2.132000000000000    
GX12=  4.056000000000000    
GY12= -1.850000000000000    
GZ12= 0.1450000000000000    
GX13=  2.787000000000000    
GY13= 0.6000000000000000    
GZ13=  1.932000000000000    
GX14=  1.209000000000000    
GY14= -1.282000000000000    
GZ14=  1.621000000000000    
GX15=  1.462000000000000    
GY15= -1.204000000000000    
GZ15=-0.1360000000000000    
GX16=  4.053000000000000    
GY16=  1.362000000000000    
GZ16= 0.1500000000000000E-01
GX17=  2.405000000000000    
GY17=  1.661000000000000    
GZ17=-0.2090000000000000    
GX18=  3.147000000000000    
GY18= 0.3730000000000000    
GZ18= -1.014000000000000    
GX19= 0.6070000000000000    
GY19=  1.120000000000001    
GZ19=-0.1560000000000000    
GX20= 0.3540000000000000    
GY20=  1.042000000000000    
GZ20=  1.601000000000000    
GX21= -1.225000000000000    
GY21=-0.8400000000000000    
GZ21=  1.290000000000000    
GX22=-0.9710000000000000    
GY22=-0.7620000000000000    
GZ22=-0.4670000000000000    
GX23= -1.802000000000000    
GY23=  1.473000000000000    
GZ23=-0.4240000000000000    
GX24= -5.116000000000001    
GY24= 0.4540000000000000    
GZ24=-0.1130000000000000    
GX25= -4.432000000000000    
GY25=  1.587000000000000    
GZ25= 0.8700000000000000    
GX26= -4.308000000000000    
GY26= -1.319000000000000    
GZ26=-0.7500000000000000E-01
GX27= -2.781000000000000    
GY27= -1.406000000000000    
GZ27=-0.6919999999999999    
STR=../input/ARGININE_6-31G_scf.mld
[Atoms] Angs
C     1    6         2.8070000000        0.0220000000        1.0110000000
C     2    6         1.4420000000       -0.6250000000        0.7850000000
C     3    6         0.3740000000        0.4630000000        0.6790000000
C     4    6        -0.9920000000       -0.1830000000        0.4540000000
N     5    7        -2.0190000000        0.8630000000        0.3520000000
C     6    6        -3.2340000000        0.2880000000        0.1510000000
N     7    7        -4.3070000000        1.0410000000        0.0300000000
N     8    7        -3.3420000000       -1.0660000000        0.0760000000
N     9    7         3.1280000000        0.9240000000       -0.1370000000
C    10    6         3.8620000000       -1.0540000000        1.1160000000
O    11    8         4.5280000000       -1.1580000000        2.1320000000
O    12    8         4.0560000000       -1.8500000000        0.1450000000
H    13    1         2.7870000000        0.6000000000        1.9320000000
H    14    1         1.2090000000       -1.2820000000        1.6210000000
H    15    1         1.4620000000       -1.2040000000       -0.1360000000
H    16    1         4.0530000000        1.3620000000        0.0150000000
H    17    1         2.4050000000        1.6610000000       -0.2090000000
H    18    1         3.1470000000        0.3730000000       -1.0140000000
H    19    1         0.6070000000        1.1200000000       -0.1560000000
H    20    1         0.3540000000        1.0420000000        1.6010000000
H    21    1        -1.2250000000       -0.8400000000        1.2900000000
H    22    1        -0.9710000000       -0.7620000000       -0.4670000000
H    23    1        -1.8020000000        1.4730000000       -0.4240000000
H    24    1        -5.1160000000        0.4540000000       -0.1130000000
H    25    1        -4.4320000000        1.5870000000        0.8700000000
H    26    1        -4.3080000000       -1.3190000000       -0.0750000000
H    27    1        -2.7810000000       -1.4060000000       -0.6920000000
[GTO]
  1 0
 s    6  1.00
  0.3047524900D+04  0.1834737091D-02
  0.4573695200D+03  0.1403732293D-01
  0.1039486800D+03  0.6884262165D-01
  0.2921015500D+02  0.2321844388D+00
  0.9286663000D+01  0.4679413476D+00
  0.3163927000D+01  0.3623119882D+00
 s    3  1.00
  0.7868272300D+01 -0.1193324245D+00
  0.1881288500D+01 -0.1608541561D+00
  0.5442492600D+00  0.1143456443D+01
 s    1  1.00
  0.1687144800D+00  0.1000000000D+01
 p    3  1.00
  0.7868272300D+01  0.6899906693D-01
  0.1881288500D+01  0.3164239597D+00
  0.5442492600D+00  0.7443082892D+00
 p    1  1.00
  0.1687144800D+00  0.1000000000D+01
  
  2 0
 s    6  1.00
  0.3047524900D+04  0.1834737091D-02
  0.4573695200D+03  0.1403732293D-01
  0.1039486800D+03  0.6884262165D-01
  0.2921015500D+02  0.2321844388D+00
  0.9286663000D+01  0.4679413476D+00
  0.3163927000D+01  0.3623119882D+00
 s    3  1.00
  0.7868272300D+01 -0.1193324245D+00
  0.1881288500D+01 -0.1608541561D+00
  0.5442492600D+00  0.1143456443D+01
 s    1  1.00
  0.1687144800D+00  0.1000000000D+01
 p    3  1.00
  0.7868272300D+01  0.6899906693D-01
  0.1881288500D+01  0.3164239597D+00
  0.5442492600D+00  0.7443082892D+00
 p    1  1.00
  0.1687144800D+00  0.1000000000D+01
  
  3 0
 s    6  1.00
  0.3047524900D+04  0.1834737091D-02
  0.4573695200D+03  0.1403732293D-01
  0.1039486800D+03  0.6884262165D-01
  0.2921015500D+02  0.2321844388D+00
  0.9286663000D+01  0.4679413476D+00
  0.3163927000D+01  0.3623119882D+00
 s    3  1.00
  0.7868272300D+01 -0.1193324245D+00
  0.1881288500D+01 -0.1608541561D+00
  0.5442492600D+00  0.1143456443D+01
 s    1  1.00
  0.1687144800D+00  0.1000000000D+01
 p    3  1.00
  0.7868272300D+01  0.6899906693D-01
  0.1881288500D+01  0.3164239597D+00
  0.5442492600D+00  0.7443082892D+00
 p    1  1.00
  0.1687144800D+00  0.1000000000D+01
  
  4 0
 s    6  1.00
  0.3047524900D+04  0.1834737091D-02
  0.4573695200D+03  0.1403732293D-01
  0.1039486800D+03  0.6884262165D-01
  0.2921015500D+02  0.2321844388D+00
  0.9286663000D+01  0.4679413476D+00
  0.3163927000D+01  0.3623119882D+00
 s    3  1.00
  0.7868272300D+01 -0.1193324245D+00
  0.1881288500D+01 -0.1608541561D+00
  0.5442492600D+00  0.1143456443D+01
 s    1  1.00
  0.1687144800D+00  0.1000000000D+01
 p    3  1.00
  0.7868272300D+01  0.6899906693D-01
  0.1881288500D+01  0.3164239597D+00
  0.5442492600D+00  0.7443082892D+00
 p    1  1.00
  0.1687144800D+00  0.1000000000D+01
  
  5 0
 s    6  1.00
  0.4173511500D+04  0.1834772199D-02
  0.6274579100D+03  0.1399462699D-01
  0.1429020900D+03  0.6858655195D-01
  0.4023432900D+02  0.2322408698D+00
  0.1282021300D+02  0.4690699496D+00
  0.4390437000D+01  0.3604551997D+00
 s    3  1.00
  0.1162636200D+02 -0.1149611854D+00
  0.2716279800D+01 -0.1691174879D+00
  0.7722184000D+00  0.1145851954D+01
 s    1  1.00
  0.2120315000D+00  0.1000000000D+01
 p    3  1.00
  0.1162636200D+02  0.6757974372D-01
  0.2716279800D+01  0.3239072986D+00
  0.7722184000D+00  0.7408951369D+00
 p    1  1.00
  0.2120315000D+00  0.1000000000D+01
  
  6 0
 s    6  1.00
  0.3047524900D+04  0.1834737091D-02
  0.4573695200D+03  0.1403732293D-01
  0.1039486800D+03  0.6884262165D-01
  0.2921015500D+02  0.2321844388D+00
  0.9286663000D+01  0.4679413476D+00
  0.3163927000D+01  0.3623119882D+00
 s    3  1.00
  0.7868272300D+01 -0.1193324245D+00
  0.1881288500D+01 -0.1608541561D+00
  0.5442492600D+00  0.1143456443D+01
 s    1  1.00
  0.1687144800D+00  0.1000000000D+01
 p    3  1.00
  0.7868272300D+01  0.6899906693D-01
  0.1881288500D+01  0.3164239597D+00
  0.5442492600D+00  0.7443082892D+00
 p    1  1.00
  0.1687144800D+00  0.1000000000D+01
  
  7 0
 s    6  1.00
  0.4173511500D+04  0.1834772199D-02
  0.6274579100D+03  0.1399462699D-01
  0.1429020900D+03  0.6858655195D-01
  0.4023432900D+02  0.2322408698D+00
  0.1282021300D+02  0.4690699496D+00
  0.4390437000D+01  0.3604551997D+00
 s    3  1.00
  0.1162636200D+02 -0.1149611854D+00
  0.2716279800D+01 -0.1691174879D+00
  0.7722184000D+00  0.1145851954D+01
 s    1  1.00
  0.2120315000D+00  0.1000000000D+01
 p    3  1.00
  0.1162636200D+02  0.6757974372D-01
  0.2716279800D+01  0.3239072986D+00
  0.7722184000D+00  0.7408951369D+00
 p    1  1.00
  0.2120315000D+00  0.1000000000D+01
  
  8 0
 s    6  1.00
  0.4173511500D+04  0.1834772199D-02
  0.6274579100D+03  0.1399462699D-01
  0.1429020900D+03  0.6858655195D-01
  0.4023432900D+02  0.2322408698D+00
  0.1282021300D+02  0.4690699496D+00
  0.4390437000D+01  0.3604551997D+00
 s    3  1.00
  0.1162636200D+02 -0.1149611854D+00
  0.2716279800D+01 -0.1691174879D+00
  0.7722184000D+00  0.1145851954D+01
 s    1  1.00
  0.2120315000D+00  0.1000000000D+01
 p    3  1.00
  0.1162636200D+02  0.6757974372D-01
  0.2716279800D+01  0.3239072986D+00
  0.7722184000D+00  0.7408951369D+00
 p    1  1.00
  0.2120315000D+00  0.1000000000D+01
  
  9 0
 s    6  1.00
  0.4173511500D+04  0.1834772199D-02
  0.6274579100D+03  0.1399462699D-01
  0.1429020900D+03  0.6858655195D-01
  0.4023432900D+02  0.2322408698D+00
  0.1282021300D+02  0.4690699496D+00
  0.4390437000D+01  0.3604551997D+00
 s    3  1.00
  0.1162636200D+02 -0.1149611854D+00
  0.2716279800D+01 -0.1691174879D+00
  0.7722184000D+00  0.1145851954D+01
 s    1  1.00
  0.2120315000D+00  0.1000000000D+01
 p    3  1.00
  0.1162636200D+02  0.6757974372D-01
  0.2716279800D+01  0.3239072986D+00
  0.7722184000D+00  0.7408951369D+00
 p    1  1.00
  0.2120315000D+00  0.1000000000D+01
  
 10 0
 s    6  1.00
  0.3047524900D+04  0.1834737091D-02
  0.4573695200D+03  0.1403732293D-01
  0.1039486800D+03  0.6884262165D-01
  0.2921015500D+02  0.2321844388D+00
  0.9286663000D+01  0.4679413476D+00
  0.3163927000D+01  0.3623119882D+00
 s    3  1.00
  0.7868272300D+01 -0.1193324245D+00
  0.1881288500D+01 -0.1608541561D+00
  0.5442492600D+00  0.1143456443D+01
 s    1  1.00
  0.1687144800D+00  0.1000000000D+01
 p    3  1.00
  0.7868272300D+01  0.6899906693D-01
  0.1881288500D+01  0.3164239597D+00
  0.5442492600D+00  0.7443082892D+00
 p    1  1.00
  0.1687144800D+00  0.1000000000D+01
  
 11 0
 s    6  1.00
  0.5484671700D+04  0.1831074396D-02
  0.8252349500D+03  0.1395017197D-01
  0.1880469600D+03  0.6844507786D-01
  0.5296450000D+02  0.2327143395D+00
  0.1689757000D+02  0.4701928990D+00
  0.5799635300D+01  0.3585208493D+00
 s    3  1.00
  0.1553961600D+02 -0.1107775519D+00
  0.3599933600D+01 -0.1480262626D+00
  0.1013761800D+01  0.1130767020D+01
 s    1  1.00
  0.2700058200D+00  0.1000000000D+01
 p    3  1.00
  0.1553961600D+02  0.7087426737D-01
  0.3599933600D+01  0.3397528370D+00
  0.1013761800D+01  0.7271585736D+00
 p    1  1.00
  0.2700058200D+00  0.1000000000D+01
  
 12 0
 s    6  1.00
  0.5484671700D+04  0.1831074396D-02
  0.8252349500D+03  0.1395017197D-01
  0.1880469600D+03  0.6844507786D-01
  0.5296450000D+02  0.2327143395D+00
  0.1689757000D+02  0.4701928990D+00
  0.5799635300D+01  0.3585208493D+00
 s    3  1.00
  0.1553961600D+02 -0.1107775519D+00
  0.3599933600D+01 -0.1480262626D+00
  0.1013761800D+01  0.1130767020D+01
 s    1  1.00
  0.2700058200D+00  0.1000000000D+01
 p    3  1.00
  0.1553961600D+02  0.7087426737D-01
  0.3599933600D+01  0.3397528370D+00
  0.1013761800D+01  0.7271585736D+00
 p    1  1.00
  0.2700058200D+00  0.1000000000D+01
  
 13 0
 s    3  1.00
  0.1873113700D+02  0.3349460400D-01
  0.2825394400D+01  0.2347269500D+00
  0.6401216900D+00  0.8137573301D+00
 s    1  1.00
  0.1612777600D+00  0.1000000000D+01
  
 14 0
 s    3  1.00
  0.1873113700D+02  0.3349460400D-01
  0.2825394400D+01  0.2347269500D+00
  0.6401216900D+00  0.8137573301D+00
 s    1  1.00
  0.1612777600D+00  0.1000000000D+01
  
 15 0
 s    3  1.00
  0.1873113700D+02  0.3349460400D-01
  0.2825394400D+01  0.2347269500D+00
  0.6401216900D+00  0.8137573301D+00
 s    1  1.00
  0.1612777600D+00  0.1000000000D+01
  
 16 0
 s    3  1.00
  0.1873113700D+02  0.3349460400D-01
  0.2825394400D+01  0.2347269500D+00
  0.6401216900D+00  0.8137573301D+00
 s    1  1.00
  0.1612777600D+00  0.1000000000D+01
  
 17 0
 s    3  1.00
  0.1873113700D+02  0.3349460400D-01
  0.2825394400D+01  0.2347269500D+00
  0.6401216900D+00  0.8137573301D+00
 s    1  1.00
  0.1612777600D+00  0.1000000000D+01
  
 18 0
 s    3  1.00
  0.1873113700D+02  0.3349460400D-01
  0.2825394400D+01  0.2347269500D+00
  0.6401216900D+00  0.8137573301D+00
 s    1  1.00
  0.1612777600D+00  0.1000000000D+01
  
 19 0
 s    3  1.00
  0.1873113700D+02  0.3349460400D-01
  0.2825394400D+01  0.2347269500D+00
  0.6401216900D+00  0.8137573301D+00
 s    1  1.00
  0.1612777600D+00  0.1000000000D+01
  
 20 0
 s    3  1.00
  0.1873113700D+02  0.3349460400D-01
  0.2825394400D+01  0.2347269500D+00
  0.6401216900D+00  0.8137573301D+00
 s    1  1.00
  0.1612777600D+00  0.1000000000D+01
  
 21 0
 s    3  1.00
  0.1873113700D+02  0.3349460400D-01
  0.2825394400D+01  0.2347269500D+00
  0.6401216900D+00  0.8137573301D+00
 s    1  1.00
  0.1612777600D+00  0.1000000000D+01
  
 22 0
 s    3  1.00
  0.1873113700D+02  0.3349460400D-01
  0.2825394400D+01  0.2347269500D+00
  0.6401216900D+00  0.8137573301D+00
 s    1  1.00
  0.1612777600D+00  0.1000000000D+01
  
 23 0
 s    3  1.00
  0.1873113700D+02  0.3349460400D-01
  0.2825394400D+01  0.2347269500D+00
  0.6401216900D+00  0.8137573301D+00
 s    1  1.00
  0.1612777600D+00  0.1000000000D+01
  
 24 0
 s    3  1.00
  0.1873113700D+02  0.3349460400D-01
  0.2825394400D+01  0.2347269500D+00
  0.6401216900D+00  0.8137573301D+00
 s    1  1.00
  0.1612777600D+00  0.1000000000D+01
  
 25 0
 s    3  1.00
  0.1873113700D+02  0.3349460400D-01
  0.2825394400D+01  0.2347269500D+00
  0.6401216900D+00  0.8137573301D+00
 s    1  1.00
  0.1612777600D+00  0.1000000000D+01
  
 26 0
 s    3  1.00
  0.1873113700D+02  0.3349460400D-01
  0.2825394400D+01  0.2347269500D+00
  0.6401216900D+00  0.8137573301D+00
 s    1  1.00
  0.1612777600D+00  0.1000000000D+01
  
 27 0
 s    3  1.00
  0.1873113700D+02  0.3349460400D-01
  0.2825394400D+01  0.2347269500D+00
  0.6401216900D+00  0.8137573301D+00
 s    1  1.00
  0.1612777600D+00  0.1000000000D+01
 
 
[MO]
 Sym=      1.1
 Ene=     -20.4497
 Spin= Alpha
 Occup=    2.000000
1 -0.000059802959930
2 -0.000706953745294
3 0.003243103807308
4 -0.000027014933487
5 0.000114013212378
6 0.000125106459676
7 -0.000769119872279
8 -0.001361194115228
9 -0.003296763376884
10 0.000017936265676
11 0.000088814821175
12 -0.002105749670226
13 -0.000084787561577
14 0.000003518010473
15 0.000001192089383
16 -0.000386366449552
17 -0.001121647166461
18 0.000765830021726
19 -0.000021206126993
20 -0.000160452765495
21 0.001328014651039
22 0.000019513898954
23 0.000000322992821
24 -0.000020177073993
25 0.000225353058103
26 -0.000499814985469
27 -0.000072469299564
28 0.000009981544436
29 0.000074582309323
30 -0.000515742013515
31 0.000013121303394
32 -0.000011716223603
33 0.000012770118150
34 -0.000356289611041
35 -0.000018478710477
36 -0.000105663703451
37 0.000000212937502
38 -0.000000487327807
39 -0.000066177350483
40 -0.000017770205509
41 -0.000002262625313
42 -0.000005399995824
43 0.000164420431898
44 0.000016619062149
45 0.000038504431868
46 0.000001549815762
47 0.000022557705682
48 0.000112448417183
49 0.000014375138232
50 -0.000004921923491
51 0.000003264779351
52 -0.000049559628267
53 0.000198774913857
54 -0.000010058579994
55 0.000001468419945
56 0.000014134137926
57 -0.000137702785549
58 -0.000000907778647
59 -0.000001233637171
60 -0.000002112791449
61 -0.000060559644377
62 0.000023469392648
63 0.000002918024250
64 -0.000000117097983
65 0.000002120383633
66 0.000076965704262
67 0.000008130346791
68 0.000000759964623
69 0.000001870724589
70 -0.000037051305524
71 0.000031505989827
72 0.000001049339876
73 0.000009120123057
74 0.000049248699067
75 -0.001181674470963
76 -0.000044091455334
77 0.000035789136917
78 -0.000031898750706
79 0.000801470669988
80 0.000515830671874
81 -0.000115661260263
82 0.000162859436478
83 0.000266378738292
84 0.005446197956134
85 -0.000036410602346
86 0.000022849147524
87 -0.000009614629466
88 0.004582328906000
89 -0.000350763701998
90 0.007462027857644
91 0.99586177947197
92 0.023427722486985
93 -0.015380134621056
94 -0.001346915161022
95 0.000343085075510
96 -0.001870146199260
97 0.002724399261361
98 -0.000515606430416
99 0.004052464296749
100 -0.003370136089804
101 -0.000564814132212
102 0.002032334844025
103 0.000061269311142
104 -0.000106831305957
105 -0.000068677734940
106 -0.000977836188614
107 0.000926053490213
108 -0.000181296039707
109 0.000126409125348
110 0.001136649961775
111 0.000037497021410
112 -0.000660237858629
113 0.000048258140766
114 0.000388335304681
115 -0.000014934150243
116 -0.000503568168778
117 0.000110861783616
118 0.000138700706847
119 0.000016338133554
120 0.000295458716081
121 -0.000051902550150
122 -0.000002778540735
123 -0.000040625266368
124 0.000040518422395
125 0.000018308781087
126 0.000084583048191
127 0.000030415007296
128 -0.000024929538242
129 -0.000002358900083
130 -0.000009400879189
131 0.000003447822974
132 -0.000004327466205
133 0.000002582236669
134 -0.000016594294936
135 -0.000009642253891
136 -0.000011264178270
137 0.000004398946884
138 0.000008937368747
 Sym=      2.1
 Ene=     -20.4386
 Spin= Alpha
 Occup=    2.000000
1 -0.000067365464983
2 -0.000728677555259
3 0.003908130121359
4 -0.000241942582502
5 0.000243134905396
6 -0.000061791957442
7 0.002121158318550
8 -0.001217983046232
9 0.002386245687525
10 0.000033829347020
11 0.000279379431569
12 -0.000499840328572
13 0.000050679024796
14 -0.000018025548318
15 0.000060471332016
16 -0.000779311977005
17 0.000806331521539
18 -0.000951784271767
19 0.000003731520670
20 0.000009931849539
21 -0.000770971046606
22 -0.000073535186955
23 -0.000021858169762
24 -0.000037852872113
25 0.000506862800736
26 0.000552671769480
27 0.000505987780703
28 -0.000014103063404
29 -0.000104086885533
30 0.000992373426552
31 0.000026090121189
32 -0.000009039223939
33 0.000008067336624
34 0.000178323537019
35 0.000348968696290
36 -0.000114836551807
37 0.000005729509791
38 0.000057351724807
39 -0.000353756285445
40 -0.000005970862247
41 -0.000006331035603
42 -0.000001028567117
43 -0.000113628297881
44 0.000129188763354
45 0.000020455551723
46 -0.000000080430591
47 0.000010906039566
48 0.000058731574494
49 0.000014233738960
50 0.000003602781586
51 -0.000000938294696
52 0.000008045407767
53 -0.000032694433032
54 0.000000396820885
55 0.000000320144212
56 0.000003401265481
57 -0.000004214404803
58 0.000002234813452
59 0.000001048680992
60 0.000000962160316
61 -0.000014207419065
62 -0.000002866983303
63 -0.000005863183753
64 0.000000603282872
65 0.000004100701359
66 -0.000055489016196
67 -0.000006648911355
68 -0.000001767225348
69 -0.000004145656439
70 0.000034574036565
71 -0.000005988191233
72 0.000018307920612
73 0.000016245387461
74 0.000189418018181
75 -0.000045755698916
76 0.000071836416041
77 -0.000056884924354
78 0.000022592623658
79 -0.000960675589750
80 0.000371018304808
81 -0.000123711720205
82 0.000116972472501
83 -0.000016291543313
84 0.003856822696155
85 0.000092125065273
86 -0.000093886827901
87 -0.000019601666178
88 0.001499292483278
89 -0.005741873416428
90 -0.006731213537462
91 0.003336423129724
92 -0.000413381079016
93 0.002003804993429
94 0.000089494085612
95 -0.000071847529061
96 0.000050128955987
97 -0.000979245702516
98 0.001182813135885
99 0.000161593065554
100 0.99588498644143
101 0.023235579989353
102 -0.014817704036561
103 -0.000483733450408
104 0.001531852936769
105 0.001553928455521
106 0.000809807789246
107 -0.003147065599226
108 -0.003704495864447
109 -0.000410532957125
110 -0.000447626562041
111 0.000199854157238
112 0.000529866246877
113 -0.000049465481189
114 -0.000012433930438
115 0.000216059857209
116 0.000194277084714
117 -0.000102113896884
118 -0.000355553234866
119 0.000023815317594
120 0.000090053782898
121 0.000021933294574
122 0.000060875837811
123 -0.000046234140939
124 -0.000278082122513
125 -0.000006132172073
126 0.000025521415669
127 -0.000022315756556
128 -0.000121487041208
129 0.000014569796632
130 0.000000356222564
131 -0.000001879422675
132 -0.000007129159194
133 0.000004947117507
134 -0.000003509850644
135 0.000011662259943
136 0.000015608880153
137 -0.000006270807404
138 0.000034878106583
 Sym=      3.1
 Ene=     -15.7514
 Spin= Alpha
 Occup=    2.000000
1 -0.000000891793474
2 -0.000485070340510
3 0.003593188625874
4 0.000069461616731
5 0.000156697577934
6 -0.000131163745755
7 0.000395706039229
8 0.001767558793690
9 -0.001691194741703
10 -0.000029231660408
11 -0.000392881017405
12 0.000646440875117
13 -0.000103540866471
14 -0.000165520808745
15 0.000069296232119
16 -0.000098569497862
17 0.000540493485372
18 -0.000076815024062
19 0.000009870951793
20 -0.000002957204178
21 -0.000273976076954
22 -0.000045594269002
23 0.000022613089031
24 0.000092642641101
25 -0.000485809679940
26 0.000087799378575
27 -0.000587876264131
28 0.000002003882739
29 0.000006632033853
30 -0.000222330790192
31 0.000003481795757
32 -0.000014891770982
33 -0.000028049582488
34 -0.000188121969993
35 -0.000034904852833
36 0.000283443335367
37 0.000000595914778
38 0.000007158245695
39 -0.000009751671736
40 0.000004417087047
41 -0.000000943322805
42 0.000009502887131
43 -0.000050839701725
44 0.000012885819928
45 -0.000092142929095