[Molden Format]
[Molpro variables]
_NUMVAR=  824.0000000000000    
_AVOGAD= 0.6022136736000000E+24
_BOLTZ= 0.1380658000000000E-22
_CLIGHT=  29979245800.00000    
_EV2006= 0.3674930886769165E-01
_EV= 0.3674932534394180E-01
_ENULL= 0.8854187817000000E-11
_KJOULE= 0.3808798324128737E-03
_KJOULE/MOL= 0.3808798324128737E-03
_CM= 0.4556335267302901E-05
_CM-1= 0.4556335267302901E-05
_DEB2SI= 0.3335641000000000E-29
_AMU2AU=  1822.888390000000    
_KCAL= 0.1593601117815568E-02
_KCAL/MOL= 0.1593601117815568E-02
_KELVIN2006= 0.3166828861084835E-05
_KELVIN= 0.3166814820820034E-05
_JOULE= 0.4359748200000000E-17
_HERTZ2006= 0.1519829850815779E-15
_HERTZ= 0.1519829846011223E-15
_HZ2006= 0.1519829850815779E-15
_HZ= 0.1519829846011223E-15
_JPCAL=  4.184000000000000    
_PLANCK= 0.6626075540000000E-33
_TOA2006= 0.5291772490000000    
_TOA= 0.5291772090000000    
_TOANG2006= 0.5291772490000000    
_TOANG= 0.5291772090000000    
_TORAD= 0.1745329251994330E-01
_TOCM=  219474.6306700000    
_TODEBYE=  2.541580000000000    
_TOEV2006=  27.21139610000000    
_TOE= 0.4803242000000000E-09
_TOEV=  27.21138390000000    
_TOHERTZ2006=  6579683899900000.    
_TOHERTZ=  6579683920700000.    
_TOHZ2006=  6579683899900000.    
_TOHZ=  6579683920700000.    
_TOK2006=  315773.3000000000    
_TOK=  315774.7000000000    
_TOKCAL=  627.5096000000000    
_TOKELVIN2006=  315773.3000000000    
_TOKELVIN=  315774.7000000000    
_TOKJ=  2625.500000000000    
_TOKJOULE=  2625.500000000000    
_TOKG= 0.1660565586000000E-26
_ANG2006=  1.889725988578923    
_ANG=  1.889726131421507    
_ANGSTROM2006=  1.889725988578923    
_ANGSTROM=  1.889726131421507    
_RPAREF=  0.000000000000000    
_RPADISS=  0.000000000000000    
_IGNORE_UNDEF=  2.000000000000000    
_STRICTCHECK=  0.000000000000000    
_SEW_ONEEL=  0.000000000000000    
_CPPDONE=FALSE
_DKROLL_DONE=  0.000000000000000    
_FOCKDONE=TRUE
_GRADONE=FALSE
_HESSDONE=FALSE
_INTDONE=TRUE
_SCFDONE=TRUE
_MODUL_BLOCK=FALSE
_MODUL_CUDA=FALSE
_MODUL_SLATER=FALSE
_MODUL_MRCC=FALSE
_MODUL_NBO6=FALSE
_MODUL_NECI=TRUE
_MODUL_AIMS=TRUE
_MRCC_EXEC=
_FITC_AO_SAVED=FALSE
_FITC_MO_SAVED=FALSE
_SHARED_FS=TRUE
_LSTYP=SEWARD
_INTYP=INTS
_GEOMTYP=ZMAT
_GRADTYP=ALASKA
_DIRECT=FALSE
_DKHO= -1.000000000000000    
_SYNCM=  0.000000000000000    
_BASIS=$BSET
_ZORIENT=  1.000000000000000    
_NELEC=  69.00000000000000    
!SPIN=  1.000000000000000    
_QSDSTEP=  0.000000000000000    
_QSDIRC=  0.000000000000000    
_PROGRAM=HF-SCF
_CPUSTEP=  3.069999999999999    
_SYSSTEP= 0.1100000000000000    
_WALLSTEP=  3.180000000000000    
!DFSCF=  0.000000000000000    
!SCSGRD=  0.000000000000000    
_BASINP=  610.0000000000000    
_CPUTOT=  5.020000000000000    
_CPUSORT= 0.3399999999999999    
_SYSSORT= 0.1000000000000000    
_WALLSORT= 0.4400000013411045    
_DFTEXFAC=  1.000000000000000    
_DMX= -1.022817187929923    
_DMY= -1.682043104844155    
_DMZ=-0.9089717986091301    
_DMX_SCF= -1.022817187929923    
_DMY_SCF= -1.682043104844155    
_DMZ_SCF=-0.9089717986091301    
_EHOMO=-0.5083074905243716    
_ELUMO= 0.1057808408809747    
_ENERGY= -508.4608618591701    
_ENUC=  458.2517020742123    
_GRADEXFAC=  9999.000000000000    
_GRADMETHOD=  2.000000000000000    
_NMRMETHOD=  0.000000000000000    
!GRID_FREEZE= -1.000000000000000    
_ITERATIONS=  34.00000000000000    
_LASTNELEC=  69.00000000000000    
_LASTSPIN=  1.000000000000000    
_LASTSYM=  1.000000000000000    
_MPP_PROG=  0.000000000000000    
_NPROC_MPP=  1.000000000000000    
_NPROC_MPPX=  1.000000000000000    
_NPROC_SMP=  1.000000000000000    
_NUMSTEP=  0.000000000000000    
_ORBITAL=  2100.200000000000    
_PI=  3.141592653589793    
_SEIG_MIN= 0.3241360111837051E-02
_SEWPROP=TRUE
_STATUS=  1.000000000000000    
_SYSTOT= 0.2400000000000000    
_VERSION=  2012001.000000000    
_WALLTOT=  5.260000000000000    
_DATE=23-Sep-15
_LASTORB=RHF
_MACHINE=Linux-3.2.0-90-generic/sce-chem-c01105(x86_64) 64 bit serial version
_OUTPUT=/home/s1267651/phd_mini_19Sept2015/protein/molpro2/aspartate_6-31g_scf.xml
_PGROUP=C1
_TIME=17:52:25
_LIBMOL=/usr/local/molpro/molprop_2012_1_Linux_x86_64_i8/lib/
!VIBCNT=  0.000000000000000    
!RGHFCNT=  0.000000000000000    
!SURFREC=  0.000000000000000    
!POLYREC=  0.000000000000000    
!DIPREC=  0.000000000000000    
!VSCFREC=  0.000000000000000    
!VCIREC=  0.000000000000000    
!PVCIREC=  0.000000000000000    
!VMP2REC=  0.000000000000000    
!VMCSCFREC=  0.000000000000000    
!VMRCIREC=  0.000000000000000    
!VIBINFO=  0.000000000000000    
!GAREC=  0.000000000000000    
!SCFORB=  21002.00000000000    
!NEWMOL= -1.000000000000000    
!NEWSYM= -1.000000000000000    
_SLFILES=slscratch
_NGSSTO=  9.000000000000000    
_SIN=SIN
_COS=COS
_TAN=TAN
_ACOS=ACOS
_ASIN=ASIN
_ATAN=ATAN
_COSH=COSH
_SINH=SINH
_TANH=TANH
_ABS=ABS
_MOD=MOD
_ERF=ERF
_REFC=REFC
_ERFC=ERFC
_HYPOT=HYPOT
_J0=J0
_J1=J1
_JN=JN
_GAMMA=GAMMA
_LGAMMA=LGAMMA
_Y0=Y0
_Y1=Y1
_YN=YN
_EXP=EXP
_LOG=LOG
_LOG10=LOG10
_SQRT=SQRT
_INT=INT
_NINT=NINT
_MAX=MAX
_MIN=MIN
_COSMO=  0.000000000000000    
_COSMOIT=  0.000000000000000    
_COSMOES=  0.000000000000000    
_COSMOEDS=  0.000000000000000    
_COSMOEC=  0.000000000000000    
_COSMOEDCORR=  0.000000000000000    
_FEPSI=  1.000000000000000    
_SL_IsMM=  0.000000000000000    
_SL_NSYM=  1.000000000000000    
_SL_System_BitSw=  0.000000000000000    
_SL_Unique_atoms=  0.000000000000000    
_SL_GRAD=  0.000000000000000    
_SL_MAXUPD_Hess=  5.000000000000000    
_SL_N_PRINT_COD=  5.000000000000000    
_SL_PRINT_CODES=  0.000000000000000    
_SL_BasType=  0.000000000000000    
_SL_Energy_Pred=  0.000000000000000    
_SL_New_Coords=  0.000000000000000    
_SL_Total_Nuclea=  0.000000000000000    
_SL_Highest_Mltp=  0.000000000000000    
_SL_Ref_Geom=  0.000000000000000    
_SL_Symmetry_ope=  1.000000000000000    
_SL_agrad=  0.000000000000000    
_SL_GrdMax=  0.000000000000000    
_SL_GrdNorm=  0.000000000000000    
_SL_GrdRMS=  0.000000000000000    
_SL_Hss_Q=  0.000000000000000    
_SL_Hss_X=  0.000000000000000    
_SL_BMxOld=  0.000000000000000    
_SL_KtB=  0.000000000000000    
!LATTICE= -1.000000000000000    
!NEWLATTICE=  0.000000000000000    
!LATGRAD_VAR=FALSE
!SEW_LATTICE=  1.000000000000000    
!LOCAL=  0.000000000000000    
!SAVEDOM= -1.000000000000000    
!RESTDOM= -1.000000000000000    
!SAVEDOM_HF= -1.000000000000000    
!RESTDOM_HF= -1.000000000000000    
!HESSREC=  0.000000000000000    
!FREQREC=  0.000000000000000    
!NMODREC=  0.000000000000000    
!GTASKS=  0.000000000000000    
!HTASKS=  0.000000000000000    
!THRCHG= 0.1000000000000000    
!DEBUG= -1.000000000000000    
!CFIT_CPHF=  0.000000000000000    
!RDOMAUX_CPHF=  3.000000000000000    
!THRAO_CPHF= 0.1000000000000000E-09
!THRMO_CPHF= 0.1000000000000000E-08
!THROV_CPHF= 0.1000000000000000E-11
!THRSW_CPHF= 0.1000000000000000E-09
!THRPROD_CPHF= 0.1000000000000000E-08
!THRAOPR_CPHF= 0.1000000000000000E-11
!CFIT_SCFGRD=  0.000000000000000    
!RDOMAUX_SCFGRD=  5.000000000000000    
!THRAO_SCFGRD= 0.1000000000000000E-09
!THRMO_SCFGRD= 0.1000000000000000E-08
!THROV_SCFGRD= 0.1000000000000000E-11
!THRSW_SCFGRD= 0.1000000000000000E-09
!THRPROD_SCFGRD= 0.1000000000000000E-08
!THRAOPR_SCFGRD= 0.1000000000000000E-11
!LOCFIT_SCF=  0.000000000000000    
!LOCFIT_MP2= -1.000000000000000    
_RIDOM=  0.000000000000000    
!CC2_METHOD=  0.000000000000000    
_BASIS2006=FALSE
_SVDDEL= -1.000000000000000    
_SVDDELA= -1.000000000000000    
_SVDDELP= -1.000000000000000    
_SVDDELF= -1.000000000000000    
_SVDDELS= -1.000000000000000    
_SVDDEL_ABS= -1.000000000000000    
_SVDDELA_ABS= -1.000000000000000    
_SVDDELP_ABS= -1.000000000000000    
_SVDDELF_ABS= -1.000000000000000    
_SVDDELS_ABS= -1.000000000000000    
_MAXBASIS=  0.000000000000000    
!OPT_CONICAL=  0.000000000000000    
!CLEARSP_JGRID=  0.000000000000000    
_4EXT_NDISKS=  1.000000000000000    
!ZMP=  0.000000000000000    
_MAXIT_ZMP=  500.0000000000000    
_MAXDIS_ZMP=  100.0000000000000    
_ACCU_ZMP=  14.00000000000000    
_SHIFTA_ZMP= -100.0000000000000    
!EMBEDFLAG=  1.000000000000000    
!EMBED=FALSE
!EMBED_F12=FALSE
!EMBEDNUC=  0.000000000000000    
_EMBEDENERGY=  0.000000000000000    
_KSPACETIME=  0.000000000000000    
_RSPACETIME=  0.000000000000000    
!EMBED_DFC=FALSE
!NUM_VOIDS=  0.000000000000000    
_IBODY=  0.000000000000000    
_EMBE_TOTAL=  0.000000000000000    
_EMBE_HF=  0.000000000000000    
_EMBE_CORR=  0.000000000000000    
!EDFT=  0.000000000000000    
_IFASTLATGRAD=  0.000000000000000    
_SINDEX=  0.000000000000000    
TITLE=ASPARTATE
BSET=6-31G
GX1=-0.6080000000000000    
GY1= 0.1070000000000000    
GZ1= 0.2710000000000000    
GX2= 0.7090000000000002    
GY2= 0.8390000000000000    
GZ2= 0.1900000000000000E-01
GX3=  1.855000000000000    
GY3=-0.1400000000000001    
GZ3= 0.1140000000000000    
GX4=  3.000000000000000    
GY4= 0.2440000000000000    
GZ4=-0.5700000000000000E-01
GX5=  1.626000000000000    
GY5= -1.362000000000000    
GZ5= 0.3720000000000000    
GX6=-0.7850000000000000    
GY6=-0.9690000000000000    
GZ6=-0.7520000000000000    
GX7= -1.754000000000000    
GY7=  1.085000000000000    
GZ7= 0.1760000000000000    
GX8= -2.484000000000000    
GY8=  1.266000000000000    
GZ8=  1.137000000000000    
GX9= -1.959000000000000    
GY9=  1.720000000000000    
GZ9=-0.9040000000000000    
GX10=-0.5920000000000000    
GY10=-0.3370000000000000    
GZ10=  1.265000000000000    
GX11= 0.8380000000000002    
GY11=  1.621000000000000    
GZ11= 0.7630000000000000    
GX12= 0.6919999999999999    
GY12=  1.282000000000000    
GZ12=-0.9750000000000000    
GX13= -1.677000000000000    
GY13= -1.465000000000001    
GZ13=-0.5800000000000001    
GX14=  0.000000000000000    
GY14= -1.640000000000000    
GZ14=-0.6860000000000001    
GX15=-0.8010000000000000    
GY15=-0.5470000000000000    
GZ15= -1.697000000000000    
STR=../input/ASPARTATE_6-31G_scf.mld
[Atoms] Angs
C     1    6        -0.6080000000        0.1070000000        0.2710000000
C     2    6         0.7090000000        0.8390000000        0.0190000000
C     3    6         1.8550000000       -0.1400000000        0.1140000000
O     4    8         3.0000000000        0.2440000000       -0.0570000000
O     5    8         1.6260000000       -1.3620000000        0.3720000000
N     6    7        -0.7850000000       -0.9690000000       -0.7520000000
C     7    6        -1.7540000000        1.0850000000        0.1760000000
O     8    8        -2.4840000000        1.2660000000        1.1370000000
O     9    8        -1.9590000000        1.7200000000       -0.9040000000
H    10    1        -0.5920000000       -0.3370000000        1.2650000000
H    11    1         0.8380000000        1.6210000000        0.7630000000
H    12    1         0.6920000000        1.2820000000       -0.9750000000
H    13    1        -1.6770000000       -1.4650000000       -0.5800000000
H    14    1         0.0000000000       -1.6400000000       -0.6860000000
H    15    1        -0.8010000000       -0.5470000000       -1.6970000000
[GTO]
  1 0
 s    6  1.00
  0.3047524900D+04  0.1834737091D-02
  0.4573695200D+03  0.1403732293D-01
  0.1039486800D+03  0.6884262165D-01
  0.2921015500D+02  0.2321844388D+00
  0.9286663000D+01  0.4679413476D+00
  0.3163927000D+01  0.3623119882D+00
 s    3  1.00
  0.7868272300D+01 -0.1193324245D+00
  0.1881288500D+01 -0.1608541561D+00
  0.5442492600D+00  0.1143456443D+01
 s    1  1.00
  0.1687144800D+00  0.1000000000D+01
 p    3  1.00
  0.7868272300D+01  0.6899906693D-01
  0.1881288500D+01  0.3164239597D+00
  0.5442492600D+00  0.7443082892D+00
 p    1  1.00
  0.1687144800D+00  0.1000000000D+01
  
  2 0
 s    6  1.00
  0.3047524900D+04  0.1834737091D-02
  0.4573695200D+03  0.1403732293D-01
  0.1039486800D+03  0.6884262165D-01
  0.2921015500D+02  0.2321844388D+00
  0.9286663000D+01  0.4679413476D+00
  0.3163927000D+01  0.3623119882D+00
 s    3  1.00
  0.7868272300D+01 -0.1193324245D+00
  0.1881288500D+01 -0.1608541561D+00
  0.5442492600D+00  0.1143456443D+01
 s    1  1.00
  0.1687144800D+00  0.1000000000D+01
 p    3  1.00
  0.7868272300D+01  0.6899906693D-01
  0.1881288500D+01  0.3164239597D+00
  0.5442492600D+00  0.7443082892D+00
 p    1  1.00
  0.1687144800D+00  0.1000000000D+01
  
  3 0
 s    6  1.00
  0.3047524900D+04  0.1834737091D-02
  0.4573695200D+03  0.1403732293D-01
  0.1039486800D+03  0.6884262165D-01
  0.2921015500D+02  0.2321844388D+00
  0.9286663000D+01  0.4679413476D+00
  0.3163927000D+01  0.3623119882D+00
 s    3  1.00
  0.7868272300D+01 -0.1193324245D+00
  0.1881288500D+01 -0.1608541561D+00
  0.5442492600D+00  0.1143456443D+01
 s    1  1.00
  0.1687144800D+00  0.1000000000D+01
 p    3  1.00
  0.7868272300D+01  0.6899906693D-01
  0.1881288500D+01  0.3164239597D+00
  0.5442492600D+00  0.7443082892D+00
 p    1  1.00
  0.1687144800D+00  0.1000000000D+01
  
  4 0
 s    6  1.00
  0.5484671700D+04  0.1831074396D-02
  0.8252349500D+03  0.1395017197D-01
  0.1880469600D+03  0.6844507786D-01
  0.5296450000D+02  0.2327143395D+00
  0.1689757000D+02  0.4701928990D+00
  0.5799635300D+01  0.3585208493D+00
 s    3  1.00
  0.1553961600D+02 -0.1107775519D+00
  0.3599933600D+01 -0.1480262626D+00
  0.1013761800D+01  0.1130767020D+01
 s    1  1.00
  0.2700058200D+00  0.1000000000D+01
 p    3  1.00
  0.1553961600D+02  0.7087426737D-01
  0.3599933600D+01  0.3397528370D+00
  0.1013761800D+01  0.7271585736D+00
 p    1  1.00
  0.2700058200D+00  0.1000000000D+01
  
  5 0
 s    6  1.00
  0.5484671700D+04  0.1831074396D-02
  0.8252349500D+03  0.1395017197D-01
  0.1880469600D+03  0.6844507786D-01
  0.5296450000D+02  0.2327143395D+00
  0.1689757000D+02  0.4701928990D+00
  0.5799635300D+01  0.3585208493D+00
 s    3  1.00
  0.1553961600D+02 -0.1107775519D+00
  0.3599933600D+01 -0.1480262626D+00
  0.1013761800D+01  0.1130767020D+01
 s    1  1.00
  0.2700058200D+00  0.1000000000D+01
 p    3  1.00
  0.1553961600D+02  0.7087426737D-01
  0.3599933600D+01  0.3397528370D+00
  0.1013761800D+01  0.7271585736D+00
 p    1  1.00
  0.2700058200D+00  0.1000000000D+01
  
  6 0
 s    6  1.00
  0.4173511500D+04  0.1834772199D-02
  0.6274579100D+03  0.1399462699D-01
  0.1429020900D+03  0.6858655195D-01
  0.4023432900D+02  0.2322408698D+00
  0.1282021300D+02  0.4690699496D+00
  0.4390437000D+01  0.3604551997D+00
 s    3  1.00
  0.1162636200D+02 -0.1149611854D+00
  0.2716279800D+01 -0.1691174879D+00
  0.7722184000D+00  0.1145851954D+01
 s    1  1.00
  0.2120315000D+00  0.1000000000D+01
 p    3  1.00
  0.1162636200D+02  0.6757974372D-01
  0.2716279800D+01  0.3239072986D+00
  0.7722184000D+00  0.7408951369D+00
 p    1  1.00
  0.2120315000D+00  0.1000000000D+01
  
  7 0
 s    6  1.00
  0.3047524900D+04  0.1834737091D-02
  0.4573695200D+03  0.1403732293D-01
  0.1039486800D+03  0.6884262165D-01
  0.2921015500D+02  0.2321844388D+00
  0.9286663000D+01  0.4679413476D+00
  0.3163927000D+01  0.3623119882D+00
 s    3  1.00
  0.7868272300D+01 -0.1193324245D+00
  0.1881288500D+01 -0.1608541561D+00
  0.5442492600D+00  0.1143456443D+01
 s    1  1.00
  0.1687144800D+00  0.1000000000D+01
 p    3  1.00
  0.7868272300D+01  0.6899906693D-01
  0.1881288500D+01  0.3164239597D+00
  0.5442492600D+00  0.7443082892D+00
 p    1  1.00
  0.1687144800D+00  0.1000000000D+01
  
  8 0
 s    6  1.00
  0.5484671700D+04  0.1831074396D-02
  0.8252349500D+03  0.1395017197D-01
  0.1880469600D+03  0.6844507786D-01
  0.5296450000D+02  0.2327143395D+00
  0.1689757000D+02  0.4701928990D+00
  0.5799635300D+01  0.3585208493D+00
 s    3  1.00
  0.1553961600D+02 -0.1107775519D+00
  0.3599933600D+01 -0.1480262626D+00
  0.1013761800D+01  0.1130767020D+01
 s    1  1.00
  0.2700058200D+00  0.1000000000D+01
 p    3  1.00
  0.1553961600D+02  0.7087426737D-01
  0.3599933600D+01  0.3397528370D+00
  0.1013761800D+01  0.7271585736D+00
 p    1  1.00
  0.2700058200D+00  0.1000000000D+01
  
  9 0
 s    6  1.00
  0.5484671700D+04  0.1831074396D-02
  0.8252349500D+03  0.1395017197D-01
  0.1880469600D+03  0.6844507786D-01
  0.5296450000D+02  0.2327143395D+00
  0.1689757000D+02  0.4701928990D+00
  0.5799635300D+01  0.3585208493D+00
 s    3  1.00
  0.1553961600D+02 -0.1107775519D+00
  0.3599933600D+01 -0.1480262626D+00
  0.1013761800D+01  0.1130767020D+01
 s    1  1.00
  0.2700058200D+00  0.1000000000D+01
 p    3  1.00
  0.1553961600D+02  0.7087426737D-01
  0.3599933600D+01  0.3397528370D+00
  0.1013761800D+01  0.7271585736D+00
 p    1  1.00
  0.2700058200D+00  0.1000000000D+01
  
 10 0
 s    3  1.00
  0.1873113700D+02  0.3349460400D-01
  0.2825394400D+01  0.2347269500D+00
  0.6401216900D+00  0.8137573301D+00
 s    1  1.00
  0.1612777600D+00  0.1000000000D+01
  
 11 0
 s    3  1.00
  0.1873113700D+02  0.3349460400D-01
  0.2825394400D+01  0.2347269500D+00
  0.6401216900D+00  0.8137573301D+00
 s    1  1.00
  0.1612777600D+00  0.1000000000D+01
  
 12 0
 s    3  1.00
  0.1873113700D+02  0.3349460400D-01
  0.2825394400D+01  0.2347269500D+00
  0.6401216900D+00  0.8137573301D+00
 s    1  1.00
  0.1612777600D+00  0.1000000000D+01
  
 13 0
 s    3  1.00
  0.1873113700D+02  0.3349460400D-01
  0.2825394400D+01  0.2347269500D+00
  0.6401216900D+00  0.8137573301D+00
 s    1  1.00
  0.1612777600D+00  0.1000000000D+01
  
 14 0
 s    3  1.00
  0.1873113700D+02  0.3349460400D-01
  0.2825394400D+01  0.2347269500D+00
  0.6401216900D+00  0.8137573301D+00
 s    1  1.00
  0.1612777600D+00  0.1000000000D+01
  
 15 0
 s    3  1.00
  0.1873113700D+02  0.3349460400D-01
  0.2825394400D+01  0.2347269500D+00
  0.6401216900D+00  0.8137573301D+00
 s    1  1.00
  0.1612777600D+00  0.1000000000D+01
 
 
[MO]
 Sym=      1.1
 Ene=     -20.6222
 Spin= Alpha
 Occup=    2.000000
1 -0.000058442408629
2 -0.000688989943322
3 0.003219118161674
4 0.000017611127448
5 -0.000084766068615
6 0.000145382986289
7 0.000832977040864
8 0.000958801358496
9 -0.003440708183189
10 0.000020622059830
11 0.000115512662113
12 -0.002226558817948
13 0.000096793681987
14 0.000016099117546
15 0.000001290672164
16 0.000198311244667
17 0.001280053473518
18 0.000628471351396
19 -0.000013130071682
20 -0.000100341908584
21 0.001093940734620
22 -0.000009124012579
23 0.000007298128451
24 -0.000028322963371
25 -0.000617927133944
26 0.000276746503288
27 -0.000083099943672
28 0.000009777973206
29 0.000001621045592
30 0.000024311595805
31 -0.000007794080517
32 0.000014750095084
33 -0.000000099490880
34 0.000074328895561
35 -0.000096046716245
36 0.000019625215187
37 0.000013431979813
38 0.000028920422654
39 -0.000162587238240
40 -0.000010377352788
41 -0.000000396432071
42 -0.000002885910062
43 0.000108832161479
44 -0.000070889737406
45 0.000033805373033
46 0.000010018389877
47 0.000058664082738
48 -0.001223449820825
49 0.000051106698667
50 -0.000035756237654
51 -0.000028563566589
52 -0.000774659855765
53 -0.000595705972784
54 -0.000063259421400
55 0.000164422343462
56 0.000295150843934
57 0.005479234582345
58 0.000019779363542
59 -0.000014008878784
60 0.000015617335817
61 -0.005032543207044
62 0.000979762321798
63 0.007102005465576
64 0.99589640232476
65 0.023344540663533
66 -0.015437596443543
67 0.001463630368980
68 -0.000419558463469
69 -0.001802022236449
70 -0.002992419201936
71 0.000784404596655
72 0.003874465140386
73 -0.000491469119105
74 -0.000490815424515
75 0.001969121187503
76 -0.000065313608306
77 0.000084952013924
78 -0.000074493504228
79 0.001057188450973
80 -0.000841565860916
81 -0.000026087614433
82 0.000134215248402
83 0.001138322579494
84 0.000043860965383
85 -0.000657633764664
86 0.000061663212626
87 0.000386495342163
88 -0.000015598934166
89 -0.000514384373015
90 0.000109982205522
91 0.000179675207633
92 0.000023005449696
93 0.000301711822174
 Sym=      2.1
 Ene=     -20.6042
 Spin= Alpha
 Occup=    2.000000
1 -0.000025478124772
2 -0.000279278167390
3 -0.000526891395283
4 -0.000246318304571
5 0.000086763284242
6 0.000001380649179
7 0.001732303461978
8 -0.001672103013507
9 0.000130795254635
10 -0.000008487016554
11 -0.000252353329323
12 0.000776819794313
13 -0.000042665634291
14 -0.000073772986950
15 0.000005299359791
16 -0.001045798526864
17 -0.000360084728231
18 0.000246307975739
19 0.000160267878461
20 0.000346399533495
21 0.006525515037634
22 -0.000103879604471
23 0.000004124845463
24 -0.000000117575895
25 0.007202657503255
26 0.003112690228984
27 -0.001212996259078
28 0.99589434131164
29 0.023334548257722
30 -0.015202703219610
31 -0.002266648479002
32 -0.000661566490050
33 0.000310643003399
34 0.004717490204801
35 0.001430400565970
36 -0.000673923405303
37 -0.000537813225322
38 -0.000369524561707
39 0.001463942688496
40 -0.000023847380503
41 -0.000131805279579
42 0.000022388057680
43 -0.000838725344817
44 0.000635099099299
45 -0.000037053211581
46 0.000001288985487
47 -0.000028451261219
48 -0.000381386614533
49 -0.000062950890486
50 -0.000056520773288
51 0.000031249536524
52 -0.000019853106204
53 0.000256669348668
54 -0.000480306470711
55 -0.000013183160820
56 -0.000088919330080
57 0.001595229981457
58 0.000064885952389
59 -0.000027308685223
60 -0.000001236817016
61 0.000533495901550
62 -0.000840389120864
63 0.000451523395800
64 -0.000008620431307
65 0.000009957458900
66 -0.000219399498327
67 -0.000006204668511
68 -0.000010777099923
69 -0.000001442561842
70 -0.000072966715183
71 0.000145744871733
72 0.000009529763319
73 -0.000057932222182
74 -0.000102548886728
75 0.000405988325021
76 -0.000001905501143
77 -0.000004022180558
78 -0.000007603873670
79 0.000004906612413
80 0.000003521498866
81 0.000115127009513
82 -0.000158824055167
83 -0.000222830744681
84 0.000019143992017
85 -0.000301857651300
86 0.000027094787705
87 -0.000193890095671
88 0.000085467389213
89 0.000090746534651
90 0.000080788330960
91 0.000148059927363
92 -0.000095974041439
93 -0.000194471959457
 Sym=      3.1
 Ene=     -20.5496
 Spin= Alpha
 Occup=    2.000000
1 -0.000069819766994
2 -0.000745839193851
3 0.004082212615440
4 0.000277018688037
5 -0.000234164762372
6 -0.000013397671439
7 -0.002466290933924
8 0.001400541066634
9 0.002050271700152
10 0.000028419634003
11 0.000245906501209
12 -0.000123219394906
13 -0.000053958898855
14 0.000011636516704
15 0.000055465589170
16 0.001134387636160
17 -0.000912686551548
18 -0.000743660919846
19 0.000000508427024
20 -0.000013948325184
21 -0.000824681578812
22 0.000017361183061
23 0.000005178244588
24 -0.000000246580744
25 -0.000277365055973
26 -0.000934648925100
27 0.000413561036318
28 0.000045937236871
29 -0.000113238027531
30 0.000670423029978
31 0.000004359330447
32 -0.000004150992942
33 0.000003327114318
34 -0.000227391757956
35 0.000031222602529
36 -0.000033405435789
37 -0.000016060553714
38 0.000016731596248
39 -0.000368936138925
40 0.000040365317222
41 0.000005040643725
42 0.000019115346131
43 -0.000175091676302
44 -0.000138241574978
45 -0.000073698034063
46 0.000015919542487
47 0.000187274844818
48 -0.000018568212368
49 -0.000076902364987
50 0.000060251705685
51 0.000012057804585
52 0.001032308369460
53 -0.000365854078036
54 -0.000033451226586
55 0.000118790250765
56 -0.000020984285107
57 0.003802314782432
58 -0.000103674449246
59 0.000079479882966
60 -0.000032155914534
61 -0.001627732662293
62 0.004702629208104
63 -0.007588773377399
64 0.000457017114044
65 -0.000484504816510
66 0.002046812450201
67 -0.000108399783484
68 0.000081509681619
69 0.000036881736899
70 0.001072181854716
71 -0.001067293672432
72 0.000354427511099
73 0.99590604160096
74 0.023197254587198
75 -0.014907262987898
76 0.000459151819971
77 -0.001252412653089
78 0.001887279364833
79 -0.000834442974935
80 0.002529657010312
81 -0.004209656672895
82 -0.000397371548366
83 -0.000464442811840
84 0.000176973832463
85 0.000506098927585
86 -0.000051532870263
87 -0.000036077244802
88 0.000210459774580
89 0.000199489892882
90 -0.000101549325040
91 -0.000467041503643
92 0.000028756715989
93 0.000093273208178
 Sym=      4.1
 Ene=     -20.5462
 Spin= Alpha
 Occup=    2.000000
1 -0.000040053974753
2 -0.000485293711260
3 0.002248159119699
4 -0.000071767044740
5 0.000089766564633
6 0.000012643580809
7 0.001015989944283
8 0.000277212595210
9 -0.000498635333738
10 0.000007638197161
11 -0.000079431209587
12 0.000286240438829
13 -0.000114349070627
14 0.000145959957170
15 0.000004831948587
16 0.002653284187973
17 0.000867140623516
18 -0.000385050333495
19 0.000123848873521
20 0.000182590477701
21 0.004653894311335
22 -0.000073243089227
23 -0.000043086953230
24 0.000019683967848
25 -0.001060964556537
26 -0.007063031047839
27 0.001424686113555
28 0.000517628430454
29 -0.000345984407519
30 0.001214422893820
31 0.000125136169281
32 -0.000038529042429
33 -0.000004802031124
34 -0.000690613660851
35 0.001020610513983
36 -0.000128994151794
37 0.99587825985956
38 0.023090766128454
39 -0.013789989737434
40 0.000105106138685
41 0.002142026480781
42 -0.000560619148539
43 -0.000599841223112
44 -0.004382350062223
45 0.001020070066217
46 0.000022571858231
47 0.000165593686846
48 -0.001009457273862
49 -0.000037107152293
50 0.000004799313568
51 -0.000074483029885
52 -0.000310451779008
53 -0.000167689966132
54 0.000094480843339
55 -0.000017545393013
56 -0.000266677357523
57 0.000604443439262
58 -0.000125076731775
59 0.000047209388015
60 -0.000002250899813
61 0.000296013592503
62 -0.000074124638742
63 0.000155147144511
64 -0.000010418969836
65 0.000024685689144
66 -0.000139233370009
67 0.000015106072398
68 0.000012785339988
69 0.000002328321476
70 -0.000126106350566
71 -0.000025125006184
72 0.000003842665059
73 0.000019024201399
74 0.000004366976617
75 -0.000040867956631
76 -0.000003236474403
77 -0.000006274964090
78 0.000003163277137
79 -0.000047037019491
80 0.000037920864155
81 -0.000032720800466
82 -0.000100439188635
83 -0.000065271510714
84 -0.000027543084994
85 -0.000182907361989
86 -0.000029898025534
87 -0.000220509275587
88 0.000027314955991
89 -0.000036399996055
90 0.000056097789965
91 0.000421422045778
92 0.000142663552542
93 0.000074014762711
 Sym=      5.1
 Ene=     -15.7641
 Spin= Alpha
 Occup=    2.000000
1 0.000005113365780
2 -0.000451280595719
3 0.003548563003248
4 -0.000039740707331
5 -0.000177156104221
6 -0.000118179422548
7 -0.000124080733326
8 -0.001947169603580
9 -0.001337392609865
10 -0.000025778986540
11 -0.000348595700303
12 0.000522301240483
13 0.000087038009871
14 0.000181269827817
15 0.000066803691704
16 0.000196710176437
17 -0.000502427575156
18 -0.000240607638594
19 0.000011978531678
20 0.000028978852726
21 -0.000901994739303
22 0.000071436429887
23 0.000025335389296
24 0.000039520813597
25 0.000130987740660
26 -0.000130813470842
27 -0.000058133597912
28 -0.000001757579369
29 -0.000046853337562
30 0.000215252815729
31 0.000009132523616
32 -0.000000843775279
33 -0.000009554494529
34 -0.000092866584952
35 0.000003886366178
36 0.000039291673191
37 0.000007098393836
38 0.000068259699403
39 -0.000171541101955
40 0.000007871189689
41 -0.000039046620023
42 0.000003319279234
43 0.000195985747424
44 0.000214211814691
45 0.000083422917955
46 0.99604453028221
47 0.024470558849564
48 -0.014493828979194
49 -0.000142499067654
50 0.000097153059517
51 0.000000842267402
52 -0.000188435958960
53 -0.000950314612154
54 -0.000904222726728
55 -0.000030155057183
56 -0.000408188564879
57 0.000830227812502
58 -0.000147659763636
59 0.000158934319389
60 0.000027337138285
61 0.000662343557973
62 -0.000179599180542
63 -0.000472612273416
64 -0.000003833491992
65 -0.000034885740010
66 0.000328152279745
67 -0.000002965937511
68 -0.000040198847493
69 -0.000018253054234
70 0.000042676312245
71 0.000112323255143
72 -0.000004335572959
73 0.000008715617658
74 0.000151645411092
75 -0.000617062241825
76 0.000037440755685
77 -0.000000494568654
78 -0.000006789176307
79 -0.000284356307212
80 0.000226807455755
81 -0.000053509321187
82 -0.000234981182220
83 -0.000239803826075
84 -0.000010100378941
85 0.000475384160909
86 -0.000036242374339
87 -0.000305066949663
88 0.000342555871676
89 0.001821051989196
90 0.000296675329366
91 0.002171292698920
92 0.000337324651426
93 0.001889430955164
 Sym=      6.1
 Ene=     -11.4158
 Spin= Alpha
 Occup=    2.000000
1 0.008040579317745
2 -0.000177770119826
3 0.004384120774481
4 0.000054489472475
5 0.000010891452855
6 -0.000007582441419
7 -0.002571802624356
8 0.001815803536343
9 0.000244898808229
10 -0.000043840538918
11 -0.000327426844858
12 -0.000128242796452
13 0.000244905008293
14 -0.000122680937628
15 0.000007462876513
16 -0.002142303157094
17 0.001023838025913
18 -0.000197755965927
19 -0.000236357840068
20 -0.000321077792960
21 0.001801559040522
22 -0.000022184732122
23 0.000031496823172
24 -0.000008589420809
25 -0.000792410081719
26 0.001260066036618
27 -0.000153773049485
28 -0.000000895564236
29 -0.000024943007372
30 -0.000066715715494
31 -0.000003681916750
32 0.000009009739134
33 0.000001162631563
34 0.000107080314223
35 -0.000195028654599
36 0.000017436555416
37 -0.000010075898983
38 -0.000198058086664
39 0.000665642065242
40 0.000012692429516
41 -0.000034428961921
42 -0.000009882765091
43 0.000049158695824
44 0.000250097041247
45 0.000007146380018
46 -0.000024733083402
47 -0.000361293590686
48 0.000536233731620
49 0.000118514832327
50 -0.000204947009140
51 -0.000046601078671
52 -0.000559832676721
53 0.001013708648203
54 0.000110358307977
55 0.99612080359838
56 0.024985789713480
57 -0.011542637562879
58 -0.000164649571996
59 -0.000048680705898
60 0.000532128436969
61 -0.004549676149363
62 0.003196797304846
63 0.000500567200497
64 -0.000338963603361
65 0.000391150523067
66 -0.001301214401920
67 0.000122054028050
68 0.000013457455353
69 -0.000310176500609
70 -0.000191410506607
71 -0.000371696091463
72 0.001503921235181
73 -0.000256638823544
74 0.000004226833083
75 0.000567440602637
76 -0.000025175626685
77 -0.000062597387323
78 0.000210266626253
79 0.000820434029029
80 -0.000310441800337
81 -0.000783767152061
82 -0.000136892980941
83 0.000170484593361
84 -0.000200085033973
85 0.000038660878775
86 -0.000145331661215
87 -0.000258375487164
88 -0.000252550191953
89 0.000241434359149
90 0.000170813901606
91 0.000604726539145
92 -0.000238562126339
93 0.000015573603030
 Sym=      7.1
 Ene=     -11.4083
 Spin= Alpha
 Occup=    2.000000
1 -0.000093111803503
2 -0.000066608711903
3 -0.001350820330883
4 -0.000158090958891
5 0.000054099253874
6 -0.000015632393617