[Molden Format]
[Molpro variables]
_NUMVAR=  830.0000000000000    
_AVOGAD= 0.6022136736000000E+24
_BOLTZ= 0.1380658000000000E-22
_CLIGHT=  29979245800.00000    
_EV2006= 0.3674930886769165E-01
_EV= 0.3674932534394180E-01
_ENULL= 0.8854187817000000E-11
_KJOULE= 0.3808798324128737E-03
_KJOULE/MOL= 0.3808798324128737E-03
_CM= 0.4556335267302901E-05
_CM-1= 0.4556335267302901E-05
_DEB2SI= 0.3335641000000000E-29
_AMU2AU=  1822.888390000000    
_KCAL= 0.1593601117815568E-02
_KCAL/MOL= 0.1593601117815568E-02
_KELVIN2006= 0.3166828861084835E-05
_KELVIN= 0.3166814820820034E-05
_JOULE= 0.4359748200000000E-17
_HERTZ2006= 0.1519829850815779E-15
_HERTZ= 0.1519829846011223E-15
_HZ2006= 0.1519829850815779E-15
_HZ= 0.1519829846011223E-15
_JPCAL=  4.184000000000000    
_PLANCK= 0.6626075540000000E-33
_TOA2006= 0.5291772490000000    
_TOA= 0.5291772090000000    
_TOANG2006= 0.5291772490000000    
_TOANG= 0.5291772090000000    
_TORAD= 0.1745329251994330E-01
_TOCM=  219474.6306700000    
_TODEBYE=  2.541580000000000    
_TOEV2006=  27.21139610000000    
_TOE= 0.4803242000000000E-09
_TOEV=  27.21138390000000    
_TOHERTZ2006=  6579683899900000.    
_TOHERTZ=  6579683920700000.    
_TOHZ2006=  6579683899900000.    
_TOHZ=  6579683920700000.    
_TOK2006=  315773.3000000000    
_TOK=  315774.7000000000    
_TOKCAL=  627.5096000000000    
_TOKELVIN2006=  315773.3000000000    
_TOKELVIN=  315774.7000000000    
_TOKJ=  2625.500000000000    
_TOKJOULE=  2625.500000000000    
_TOKG= 0.1660565586000000E-26
_ANG2006=  1.889725988578923    
_ANG=  1.889726131421507    
_ANGSTROM2006=  1.889725988578923    
_ANGSTROM=  1.889726131421507    
_RPAREF=  0.000000000000000    
_RPADISS=  0.000000000000000    
_IGNORE_UNDEF=  2.000000000000000    
_STRICTCHECK=  0.000000000000000    
_SEW_ONEEL=  0.000000000000000    
_CPPDONE=FALSE
_DKROLL_DONE=  0.000000000000000    
_FOCKDONE=TRUE
_GRADONE=FALSE
_HESSDONE=FALSE
_INTDONE=TRUE
_SCFDONE=TRUE
_MODUL_BLOCK=FALSE
_MODUL_CUDA=FALSE
_MODUL_SLATER=FALSE
_MODUL_MRCC=FALSE
_MODUL_NBO6=FALSE
_MODUL_NECI=TRUE
_MODUL_AIMS=TRUE
_MRCC_EXEC=
_FITC_AO_SAVED=FALSE
_FITC_MO_SAVED=FALSE
_SHARED_FS=TRUE
_LSTYP=SEWARD
_INTYP=INTS
_GEOMTYP=ZMAT
_GRADTYP=ALASKA
_DIRECT=FALSE
_DKHO= -1.000000000000000    
_SYNCM=  0.000000000000000    
_BASIS=$BSET
_ZORIENT=  1.000000000000000    
_NELEC=  70.00000000000000    
!SPIN=  0.000000000000000    
_QSDSTEP=  0.000000000000000    
_QSDIRC=  0.000000000000000    
_PROGRAM=HF-SCF
_CPUSTEP=  1.080000000000000    
_SYSSTEP= 0.5000000000000002E-01
_WALLSTEP=  1.120000000000000    
!DFSCF=  0.000000000000000    
!SCSGRD=  0.000000000000000    
_BASINP=  610.0000000000000    
_CPUTOT=  3.320000000000000    
_CPUSORT= 0.3500000000000001    
_SYSSORT= 0.1600000000000000    
_WALLSORT= 0.5199999995529652    
_DFTEXFAC=  1.000000000000000    
_DMX= -3.876685301711156    
_DMY=  1.957122894185350    
_DMZ= -1.739748371444918    
_DMX_SCF= -3.876685301711156    
_DMY_SCF=  1.957122894185350    
_DMZ_SCF= -1.739748371444918    
_EHOMO=-0.3220819759595263    
_ELUMO= 0.1348757924874935    
_ENERGY= -489.3671706539799    
_ENUC=  470.0209900707644    
_GRADEXFAC=  9999.000000000000    
_GRADMETHOD=  1.000000000000000    
_NMRMETHOD=  0.000000000000000    
!GRID_FREEZE= -1.000000000000000    
_ITERATIONS=  11.00000000000000    
_LASTNELEC=  70.00000000000000    
_LASTSPIN=  0.000000000000000    
_LASTSYM=  1.000000000000000    
_MPP_PROG=  0.000000000000000    
_NPROC_MPP=  1.000000000000000    
_NPROC_MPPX=  1.000000000000000    
_NPROC_SMP=  1.000000000000000    
_NUMSTEP=  0.000000000000000    
_ORBITAL=  2100.200000000000    
_PI=  3.141592653589793    
_SEIG_MIN= 0.2957789325751813E-02
_SEWPROP=TRUE
_STATUS=  1.000000000000000    
_SYSTOT= 0.2300000000000000    
_VERSION=  2012001.000000000    
_WALLTOT=  3.540000000000000    
_DATE=23-Sep-15
_LASTORB=RHF
_MACHINE=Linux-3.2.0-90-generic/sce-chem-c01105(x86_64) 64 bit serial version
_OUTPUT=/home/s1267651/phd_mini_19Sept2015/protein/molpro2/asparagine_6-31g_scf.xml
_PGROUP=C1
_TIME=17:51:14
_LIBMOL=/usr/local/molpro/molprop_2012_1_Linux_x86_64_i8/lib/
!VIBCNT=  0.000000000000000    
!RGHFCNT=  0.000000000000000    
!SURFREC=  0.000000000000000    
!POLYREC=  0.000000000000000    
!DIPREC=  0.000000000000000    
!VSCFREC=  0.000000000000000    
!VCIREC=  0.000000000000000    
!PVCIREC=  0.000000000000000    
!VMP2REC=  0.000000000000000    
!VMCSCFREC=  0.000000000000000    
!VMRCIREC=  0.000000000000000    
!VIBINFO=  0.000000000000000    
!GAREC=  0.000000000000000    
!SCFORB=  21002.00000000000    
!NEWMOL= -1.000000000000000    
!NEWSYM= -1.000000000000000    
_SLFILES=slscratch
_NGSSTO=  9.000000000000000    
_SIN=SIN
_COS=COS
_TAN=TAN
_ACOS=ACOS
_ASIN=ASIN
_ATAN=ATAN
_COSH=COSH
_SINH=SINH
_TANH=TANH
_ABS=ABS
_MOD=MOD
_ERF=ERF
_REFC=REFC
_ERFC=ERFC
_HYPOT=HYPOT
_J0=J0
_J1=J1
_JN=JN
_GAMMA=GAMMA
_LGAMMA=LGAMMA
_Y0=Y0
_Y1=Y1
_YN=YN
_EXP=EXP
_LOG=LOG
_LOG10=LOG10
_SQRT=SQRT
_INT=INT
_NINT=NINT
_MAX=MAX
_MIN=MIN
_COSMO=  0.000000000000000    
_COSMOIT=  0.000000000000000    
_COSMOES=  0.000000000000000    
_COSMOEDS=  0.000000000000000    
_COSMOEC=  0.000000000000000    
_COSMOEDCORR=  0.000000000000000    
_FEPSI=  1.000000000000000    
_SL_IsMM=  0.000000000000000    
_SL_NSYM=  1.000000000000000    
_SL_System_BitSw=  0.000000000000000    
_SL_Unique_atoms=  0.000000000000000    
_SL_GRAD=  0.000000000000000    
_SL_MAXUPD_Hess=  5.000000000000000    
_SL_N_PRINT_COD=  5.000000000000000    
_SL_PRINT_CODES=  0.000000000000000    
_SL_BasType=  0.000000000000000    
_SL_Energy_Pred=  0.000000000000000    
_SL_New_Coords=  0.000000000000000    
_SL_Total_Nuclea=  0.000000000000000    
_SL_Highest_Mltp=  0.000000000000000    
_SL_Ref_Geom=  0.000000000000000    
_SL_Symmetry_ope=  1.000000000000000    
_SL_agrad=  0.000000000000000    
_SL_GrdMax=  0.000000000000000    
_SL_GrdNorm=  0.000000000000000    
_SL_GrdRMS=  0.000000000000000    
_SL_Hss_Q=  0.000000000000000    
_SL_Hss_X=  0.000000000000000    
_SL_BMxOld=  0.000000000000000    
_SL_KtB=  0.000000000000000    
!LATTICE= -1.000000000000000    
!NEWLATTICE=  0.000000000000000    
!LATGRAD_VAR=FALSE
!SEW_LATTICE=  1.000000000000000    
!LOCAL=  0.000000000000000    
!SAVEDOM= -1.000000000000000    
!RESTDOM= -1.000000000000000    
!SAVEDOM_HF= -1.000000000000000    
!RESTDOM_HF= -1.000000000000000    
!HESSREC=  0.000000000000000    
!FREQREC=  0.000000000000000    
!NMODREC=  0.000000000000000    
!GTASKS=  0.000000000000000    
!HTASKS=  0.000000000000000    
!THRCHG= 0.1000000000000000    
!DEBUG= -1.000000000000000    
!CFIT_CPHF=  0.000000000000000    
!RDOMAUX_CPHF=  3.000000000000000    
!THRAO_CPHF= 0.1000000000000000E-09
!THRMO_CPHF= 0.1000000000000000E-08
!THROV_CPHF= 0.1000000000000000E-11
!THRSW_CPHF= 0.1000000000000000E-09
!THRPROD_CPHF= 0.1000000000000000E-08
!THRAOPR_CPHF= 0.1000000000000000E-11
!CFIT_SCFGRD=  0.000000000000000    
!RDOMAUX_SCFGRD=  5.000000000000000    
!THRAO_SCFGRD= 0.1000000000000000E-09
!THRMO_SCFGRD= 0.1000000000000000E-08
!THROV_SCFGRD= 0.1000000000000000E-11
!THRSW_SCFGRD= 0.1000000000000000E-09
!THRPROD_SCFGRD= 0.1000000000000000E-08
!THRAOPR_SCFGRD= 0.1000000000000000E-11
!LOCFIT_SCF=  0.000000000000000    
!LOCFIT_MP2= -1.000000000000000    
_RIDOM=  0.000000000000000    
!CC2_METHOD=  0.000000000000000    
_BASIS2006=FALSE
_SVDDEL= -1.000000000000000    
_SVDDELA= -1.000000000000000    
_SVDDELP= -1.000000000000000    
_SVDDELF= -1.000000000000000    
_SVDDELS= -1.000000000000000    
_SVDDEL_ABS= -1.000000000000000    
_SVDDELA_ABS= -1.000000000000000    
_SVDDELP_ABS= -1.000000000000000    
_SVDDELF_ABS= -1.000000000000000    
_SVDDELS_ABS= -1.000000000000000    
_MAXBASIS=  0.000000000000000    
!OPT_CONICAL=  0.000000000000000    
!CLEARSP_JGRID=  0.000000000000000    
_4EXT_NDISKS=  1.000000000000000    
!ZMP=  0.000000000000000    
_MAXIT_ZMP=  500.0000000000000    
_MAXDIS_ZMP=  100.0000000000000    
_ACCU_ZMP=  14.00000000000000    
_SHIFTA_ZMP= -100.0000000000000    
!EMBEDFLAG=  1.000000000000000    
!EMBED=FALSE
!EMBED_F12=FALSE
!EMBEDNUC=  0.000000000000000    
_EMBEDENERGY=  0.000000000000000    
_KSPACETIME=  0.000000000000000    
_RSPACETIME=  0.000000000000000    
!EMBED_DFC=FALSE
!NUM_VOIDS=  0.000000000000000    
_IBODY=  0.000000000000000    
_EMBE_TOTAL=  0.000000000000000    
_EMBE_HF=  0.000000000000000    
_EMBE_CORR=  0.000000000000000    
!EDFT=  0.000000000000000    
_IFASTLATGRAD=  0.000000000000000    
_SINDEX=  0.000000000000000    
TITLE=ASPARAGINE
BSET=6-31G
GX1=  1.000000000000000    
GY1= 0.4100000000000000E-01
GZ1= 0.6670000000000000    
GX2=-0.2540000000000000    
GY2=-0.8090000000000001    
GZ2= 0.4730000000000000    
GX3= -1.466000000000000    
GY3= 0.8800000000000002E-01
GZ3= 0.4100000000000000    
GX4= -1.335000000000000    
GY4=  1.307000000000000    
GZ4= 0.5120000000000000    
GX5= -2.676000000000000    
GY5=-0.4380000000000000    
GZ5= 0.2440000000000000    
GX6=  1.141000000000000    
GY6= 0.9900000000000000    
GZ6=-0.4800000000000000    
GX7=  2.213000000000001    
GY7=-0.8570000000000000    
GZ7= 0.7290000000000000    
GX8=  2.917000000000000    
GY8=-0.8620000000000000    
GZ8=  1.725000000000000    
GX9=  2.499000000000000    
GY9= -1.606000000000000    
GZ9=-0.2550000000000000    
GX10= 0.9170000000000000    
GY10= 0.6040000000000000    
GZ10=  1.594000000000001    
GX11=-0.3570000000000000    
GY11= -1.500000000000000    
GZ11=  1.307000000000000    
GX12=-0.1710000000000000    
GY12= -1.372000000000000    
GZ12=-0.4550000000000001    
GX13=  1.991000000000001    
GY13=  1.566000000000000    
GZ13=-0.3490000000000000    
GX14= 0.3100000000000000    
GY14=  1.605000000000000    
GZ14=-0.5230000000000000    
GX15=  1.220000000000000    
GY15= 0.4550000000000001    
GZ15= -1.363000000000000    
GX16= -3.487000000000000    
GY16= 0.1620000000000000    
GZ16= 0.2030000000000000    
GX17= -2.784000000000000    
GY17= -1.439000000000000    
GZ17= 0.1600000000000000    
STR=../input/ASPARAGINE_6-31G_scf.mld
[Atoms] Angs
C     1    6         1.0000000000        0.0410000000        0.6670000000
C     2    6        -0.2540000000       -0.8090000000        0.4730000000
C     3    6        -1.4660000000        0.0880000000        0.4100000000
O     4    8        -1.3350000000        1.3070000000        0.5120000000
N     5    7        -2.6760000000       -0.4380000000        0.2440000000
N     6    7         1.1410000000        0.9900000000       -0.4800000000
C     7    6         2.2130000000       -0.8570000000        0.7290000000
O     8    8         2.9170000000       -0.8620000000        1.7250000000
O     9    8         2.4990000000       -1.6060000000       -0.2550000000
H    10    1         0.9170000000        0.6040000000        1.5940000000
H    11    1        -0.3570000000       -1.5000000000        1.3070000000
H    12    1        -0.1710000000       -1.3720000000       -0.4550000000
H    13    1         1.9910000000        1.5660000000       -0.3490000000
H    14    1         0.3100000000        1.6050000000       -0.5230000000
H    15    1         1.2200000000        0.4550000000       -1.3630000000
H    16    1        -3.4870000000        0.1620000000        0.2030000000
H    17    1        -2.7840000000       -1.4390000000        0.1600000000
[GTO]
  1 0
 s    6  1.00
  0.3047524900D+04  0.1834737091D-02
  0.4573695200D+03  0.1403732293D-01
  0.1039486800D+03  0.6884262165D-01
  0.2921015500D+02  0.2321844388D+00
  0.9286663000D+01  0.4679413476D+00
  0.3163927000D+01  0.3623119882D+00
 s    3  1.00
  0.7868272300D+01 -0.1193324245D+00
  0.1881288500D+01 -0.1608541561D+00
  0.5442492600D+00  0.1143456443D+01
 s    1  1.00
  0.1687144800D+00  0.1000000000D+01
 p    3  1.00
  0.7868272300D+01  0.6899906693D-01
  0.1881288500D+01  0.3164239597D+00
  0.5442492600D+00  0.7443082892D+00
 p    1  1.00
  0.1687144800D+00  0.1000000000D+01
  
  2 0
 s    6  1.00
  0.3047524900D+04  0.1834737091D-02
  0.4573695200D+03  0.1403732293D-01
  0.1039486800D+03  0.6884262165D-01
  0.2921015500D+02  0.2321844388D+00
  0.9286663000D+01  0.4679413476D+00
  0.3163927000D+01  0.3623119882D+00
 s    3  1.00
  0.7868272300D+01 -0.1193324245D+00
  0.1881288500D+01 -0.1608541561D+00
  0.5442492600D+00  0.1143456443D+01
 s    1  1.00
  0.1687144800D+00  0.1000000000D+01
 p    3  1.00
  0.7868272300D+01  0.6899906693D-01
  0.1881288500D+01  0.3164239597D+00
  0.5442492600D+00  0.7443082892D+00
 p    1  1.00
  0.1687144800D+00  0.1000000000D+01
  
  3 0
 s    6  1.00
  0.3047524900D+04  0.1834737091D-02
  0.4573695200D+03  0.1403732293D-01
  0.1039486800D+03  0.6884262165D-01
  0.2921015500D+02  0.2321844388D+00
  0.9286663000D+01  0.4679413476D+00
  0.3163927000D+01  0.3623119882D+00
 s    3  1.00
  0.7868272300D+01 -0.1193324245D+00
  0.1881288500D+01 -0.1608541561D+00
  0.5442492600D+00  0.1143456443D+01
 s    1  1.00
  0.1687144800D+00  0.1000000000D+01
 p    3  1.00
  0.7868272300D+01  0.6899906693D-01
  0.1881288500D+01  0.3164239597D+00
  0.5442492600D+00  0.7443082892D+00
 p    1  1.00
  0.1687144800D+00  0.1000000000D+01
  
  4 0
 s    6  1.00
  0.5484671700D+04  0.1831074396D-02
  0.8252349500D+03  0.1395017197D-01
  0.1880469600D+03  0.6844507786D-01
  0.5296450000D+02  0.2327143395D+00
  0.1689757000D+02  0.4701928990D+00
  0.5799635300D+01  0.3585208493D+00
 s    3  1.00
  0.1553961600D+02 -0.1107775519D+00
  0.3599933600D+01 -0.1480262626D+00
  0.1013761800D+01  0.1130767020D+01
 s    1  1.00
  0.2700058200D+00  0.1000000000D+01
 p    3  1.00
  0.1553961600D+02  0.7087426737D-01
  0.3599933600D+01  0.3397528370D+00
  0.1013761800D+01  0.7271585736D+00
 p    1  1.00
  0.2700058200D+00  0.1000000000D+01
  
  5 0
 s    6  1.00
  0.4173511500D+04  0.1834772199D-02
  0.6274579100D+03  0.1399462699D-01
  0.1429020900D+03  0.6858655195D-01
  0.4023432900D+02  0.2322408698D+00
  0.1282021300D+02  0.4690699496D+00
  0.4390437000D+01  0.3604551997D+00
 s    3  1.00
  0.1162636200D+02 -0.1149611854D+00
  0.2716279800D+01 -0.1691174879D+00
  0.7722184000D+00  0.1145851954D+01
 s    1  1.00
  0.2120315000D+00  0.1000000000D+01
 p    3  1.00
  0.1162636200D+02  0.6757974372D-01
  0.2716279800D+01  0.3239072986D+00
  0.7722184000D+00  0.7408951369D+00
 p    1  1.00
  0.2120315000D+00  0.1000000000D+01
  
  6 0
 s    6  1.00
  0.4173511500D+04  0.1834772199D-02
  0.6274579100D+03  0.1399462699D-01
  0.1429020900D+03  0.6858655195D-01
  0.4023432900D+02  0.2322408698D+00
  0.1282021300D+02  0.4690699496D+00
  0.4390437000D+01  0.3604551997D+00
 s    3  1.00
  0.1162636200D+02 -0.1149611854D+00
  0.2716279800D+01 -0.1691174879D+00
  0.7722184000D+00  0.1145851954D+01
 s    1  1.00
  0.2120315000D+00  0.1000000000D+01
 p    3  1.00
  0.1162636200D+02  0.6757974372D-01
  0.2716279800D+01  0.3239072986D+00
  0.7722184000D+00  0.7408951369D+00
 p    1  1.00
  0.2120315000D+00  0.1000000000D+01
  
  7 0
 s    6  1.00
  0.3047524900D+04  0.1834737091D-02
  0.4573695200D+03  0.1403732293D-01
  0.1039486800D+03  0.6884262165D-01
  0.2921015500D+02  0.2321844388D+00
  0.9286663000D+01  0.4679413476D+00
  0.3163927000D+01  0.3623119882D+00
 s    3  1.00
  0.7868272300D+01 -0.1193324245D+00
  0.1881288500D+01 -0.1608541561D+00
  0.5442492600D+00  0.1143456443D+01
 s    1  1.00
  0.1687144800D+00  0.1000000000D+01
 p    3  1.00
  0.7868272300D+01  0.6899906693D-01
  0.1881288500D+01  0.3164239597D+00
  0.5442492600D+00  0.7443082892D+00
 p    1  1.00
  0.1687144800D+00  0.1000000000D+01
  
  8 0
 s    6  1.00
  0.5484671700D+04  0.1831074396D-02
  0.8252349500D+03  0.1395017197D-01
  0.1880469600D+03  0.6844507786D-01
  0.5296450000D+02  0.2327143395D+00
  0.1689757000D+02  0.4701928990D+00
  0.5799635300D+01  0.3585208493D+00
 s    3  1.00
  0.1553961600D+02 -0.1107775519D+00
  0.3599933600D+01 -0.1480262626D+00
  0.1013761800D+01  0.1130767020D+01
 s    1  1.00
  0.2700058200D+00  0.1000000000D+01
 p    3  1.00
  0.1553961600D+02  0.7087426737D-01
  0.3599933600D+01  0.3397528370D+00
  0.1013761800D+01  0.7271585736D+00
 p    1  1.00
  0.2700058200D+00  0.1000000000D+01
  
  9 0
 s    6  1.00
  0.5484671700D+04  0.1831074396D-02
  0.8252349500D+03  0.1395017197D-01
  0.1880469600D+03  0.6844507786D-01
  0.5296450000D+02  0.2327143395D+00
  0.1689757000D+02  0.4701928990D+00
  0.5799635300D+01  0.3585208493D+00
 s    3  1.00
  0.1553961600D+02 -0.1107775519D+00
  0.3599933600D+01 -0.1480262626D+00
  0.1013761800D+01  0.1130767020D+01
 s    1  1.00
  0.2700058200D+00  0.1000000000D+01
 p    3  1.00
  0.1553961600D+02  0.7087426737D-01
  0.3599933600D+01  0.3397528370D+00
  0.1013761800D+01  0.7271585736D+00
 p    1  1.00
  0.2700058200D+00  0.1000000000D+01
  
 10 0
 s    3  1.00
  0.1873113700D+02  0.3349460400D-01
  0.2825394400D+01  0.2347269500D+00
  0.6401216900D+00  0.8137573301D+00
 s    1  1.00
  0.1612777600D+00  0.1000000000D+01
  
 11 0
 s    3  1.00
  0.1873113700D+02  0.3349460400D-01
  0.2825394400D+01  0.2347269500D+00
  0.6401216900D+00  0.8137573301D+00
 s    1  1.00
  0.1612777600D+00  0.1000000000D+01
  
 12 0
 s    3  1.00
  0.1873113700D+02  0.3349460400D-01
  0.2825394400D+01  0.2347269500D+00
  0.6401216900D+00  0.8137573301D+00
 s    1  1.00
  0.1612777600D+00  0.1000000000D+01
  
 13 0
 s    3  1.00
  0.1873113700D+02  0.3349460400D-01
  0.2825394400D+01  0.2347269500D+00
  0.6401216900D+00  0.8137573301D+00
 s    1  1.00
  0.1612777600D+00  0.1000000000D+01
  
 14 0
 s    3  1.00
  0.1873113700D+02  0.3349460400D-01
  0.2825394400D+01  0.2347269500D+00
  0.6401216900D+00  0.8137573301D+00
 s    1  1.00
  0.1612777600D+00  0.1000000000D+01
  
 15 0
 s    3  1.00
  0.1873113700D+02  0.3349460400D-01
  0.2825394400D+01  0.2347269500D+00
  0.6401216900D+00  0.8137573301D+00
 s    1  1.00
  0.1612777600D+00  0.1000000000D+01
  
 16 0
 s    3  1.00
  0.1873113700D+02  0.3349460400D-01
  0.2825394400D+01  0.2347269500D+00
  0.6401216900D+00  0.8137573301D+00
 s    1  1.00
  0.1612777600D+00  0.1000000000D+01
  
 17 0
 s    3  1.00
  0.1873113700D+02  0.3349460400D-01
  0.2825394400D+01  0.2347269500D+00
  0.6401216900D+00  0.8137573301D+00
 s    1  1.00
  0.1612777600D+00  0.1000000000D+01
 
 
[MO]
 Sym=      1.1
 Ene=     -20.5778
 Spin= Alpha
 Occup=    2.000000
1 -0.000032606929232
2 -0.000420225713890
3 0.002034229846386
4 0.000052904381057
5 -0.000068075688656
6 0.000017732446172
7 -0.000614454784180
8 -0.000485667261506
9 -0.000410965239297
10 -0.000002985018144
11 -0.000143254734092
12 0.001172422369636
13 0.000081898989433
14 -0.000143274808420
15 0.000025328626156
16 -0.002756584701032
17 -0.000861742346661
18 -0.000381967157803
19 0.000171036771678
20 0.000451875697424
21 0.004456195987405
22 0.000019274366947
23 -0.000069914463214
24 0.000007393966159
25 0.000574267287311
26 0.008763370212382
27 0.000656715382243
28 0.99586932035789
29 0.023433859700633
30 -0.015228344270151
31 -0.000114387880402
32 -0.002311508130027
33 -0.000279983810639
34 0.000416790332460
35 0.004838670242263
36 0.000461333187676
37 -0.000020526219420
38 -0.000335657717659
39 0.001657736145666
40 -0.000163459102613
41 0.000012787456958
42 -0.000017672391908
43 0.001623122523383
44 -0.001774092128152
45 0.000056145103279
46 0.000020413205341
47 0.000153281374118
48 -0.000827677335382
49 0.000034056653164
50 -0.000030838474537
51 -0.000065781664575
52 0.000236873675123
53 0.000294666494748
54 0.000103928068782
55 -0.000017166348834
56 -0.000265146146749
57 0.000460317423543
58 0.000132730086673
59 -0.000038978762681
60 0.000007664408615
61 -0.000278229305617
62 -0.000051039775939
63 0.000051498718581
64 0.000005007296266
65 0.000017526866767
66 -0.000080601520666
67 -0.000016037927679
68 -0.000012205459175
69 0.000004107162094
70 0.000109016955517
71 0.000054578421134
72 -0.000003508258691
73 0.000002644835518
74 0.000016553448981
75 -0.000116100440254
76 0.000003931406959
77 0.000005187784273
78 0.000005276876363
79 0.000055595778720
80 -0.000039514089129
81 -0.000047839514239
82 -0.000063133805149
83 -0.000098399799650
84 -0.000033534758283
85 -0.000182039731486
86 -0.000040939432942
87 -0.000252174495238
88 0.000005737805319
89 -0.000048202449090
90 0.000047860404599
91 0.000207155235603
92 0.000149227080341
93 0.000095205310578
94 0.000298090254014
95 0.000545775032741
96 -0.000353268419380
97 -0.000315969089865
 Sym=      2.1
 Ene=     -20.4543
 Spin= Alpha
 Occup=    2.000000
1 -0.000059573231615
2 -0.000705384215816
3 0.003271383770659
4 -0.000042429703827
5 0.000103894340931
6 0.000128795014339
7 -0.000630052241426
8 -0.001475967476797
9 -0.003312075282354
10 0.000022621170412
11 0.000127552967280
12 -0.002395784039985
13 -0.000089399842242
14 -0.000022854315659
15 0.000001884175591
16 -0.000105891684406
17 -0.001264237939646
18 0.000773034346084
19 -0.000014545842988
20 -0.000118301095433
21 0.001117741424520
22 0.000006008446356
23 -0.000001161976060
24 -0.000026579833895
25 0.000804581065511
26 -0.000344182380244
27 -0.000020252033862
28 -0.000002985990658
29 0.000019934161820
30 -0.000111700952322
31 0.000010888074472
32 -0.000000201436278
33 -0.000002612990138
34 -0.000143889338247
35 0.000057974661551
36 0.000018699094748
37 -0.000000245126086
38 -0.000004217967253
39 0.000109363980085
40 0.000005256429851
41 -0.000015901620362
42 0.000001655123895
43 -0.000090027699031
44 0.000235569187466
45 0.000015519072440
46 0.000009999963549
47 0.000057806508359
48 -0.001222701156234
49 -0.000052840087577
50 0.000029459186220
51 -0.000034543856098
52 0.000732617400433
53 0.000633624992502
54 -0.000115040618484
55 0.000163399006077
56 0.000271412468484
57 0.005389827306573
58 -0.000037915043247
59 0.000016406114570
60 -0.000007572971331
61 0.004822282573459
62 0.000323233565930
63 0.007352028192828
64 0.99586223002375
65 0.023425201143519
66 -0.015385795283870
67 -0.001441036971819
68 0.000134929617586
69 -0.001828370277605
70 0.002890636058545
71 -0.000107302678378
72 0.003969803361327
73 -0.003495351493101
74 -0.000570890663541
75 0.002059580736627
76 0.000074708539256
77 -0.000095697056807
78 -0.000071654862640
79 -0.001119110358231
80 0.000769947118403
81 -0.000139545050765
82 0.000128106923909
83 0.001150724751366
84 0.000047032715478
85 -0.000655849298317
86 0.000063807434640
87 0.000383675367023
88 -0.000015226773741
89 -0.000513133399383
90 0.000109428711697
91 0.000184117360239
92 0.000021970943329
93 0.000304764928082
94 -0.000047414508257
95 -0.000034990367845
96 0.000051213799503
97 0.000041620888739
 Sym=      3.1
 Ene=     -20.4435
 Spin= Alpha
 Occup=    2.000000
1 -0.000068513977472
2 -0.000736564042310
3 0.004057056698917
4 -0.000301267687682
5 0.000212546287529
6 -0.000051595797324
7 0.002519454370872
8 -0.000978235852812
9 0.002276370652015
10 0.000029652879915
11 0.000256538903514
12 -0.000154558313787
13 0.000048741884706
14 -0.000002371462041
15 0.000057715723048
16 -0.001153060600268
17 0.000707149635447
18 -0.000882388452104
19 0.000006638599997
20 0.000053920406404
21 -0.001024148006619
22 -0.000052394628472
23 -0.000018030146308
24 -0.000006639596609
25 0.000404463069679
26 0.001112029253950
27 0.000334067731916
28 0.000001651095484
29 0.000026252705370
30 -0.000433637071245
31 -0.000040040568063
32 -0.000006296373957
33 0.000018417742674
34 0.000141229192776
35 0.000147063762657
36 -0.000091699780577
37 -0.000010463415460
38 -0.000109576079486
39 0.000910657614903
40 0.000003232992710
41 0.000001771533077
42 -0.000000397872573
43 0.000402375931016
44 -0.000033339746308
45 -0.000003189310169
46 0.000015962941810
47 0.000189560436368
48 -0.000016828016053
49 0.000078442177057
50 -0.000054143302115
51 0.000021047049075
52 -0.001050091329555
53 0.000290767128479
54 -0.000092774882422
55 0.000118313227312
56 -0.000016446244950
57 0.003761507524964
58 0.000114587605012
59 -0.000079312987643
60 -0.000020656337799
61 0.002212804990159
62 -0.005489812072140
63 -0.006875301044424
64 0.003461284403018
65 -0.000412789749938
66 0.002025997231334
67 0.000100940120873
68 -0.000059375954613
69 0.000046545404179
70 -0.001153210765725
71 0.001032819092082
72 0.000199946406547
73 0.99588444778793
74 0.023253914432564
75 -0.014890572603719
76 -0.000679578400750
77 0.001419869682716
78 0.001591500387330
79 0.001183601680737
80 -0.002960768480982
81 -0.003782119059322
82 -0.000392568850508
83 -0.000458818821084
84 0.000180130648847
85 0.000500704809534
86 -0.000051528698800
87 -0.000027106161514
88 0.000208913374225
89 0.000194409129293
90 -0.000103090078783
91 -0.000468571332638
92 0.000029114150041
93 0.000109803757105
94 -0.000004102592230
95 0.000059721411725
96 -0.000047397160308
97 -0.000049723136157
 Sym=      4.1
 Ene=     -15.7328
 Spin= Alpha
 Occup=    2.000000
1 0.000002145030278
2 -0.000463867847703
3 0.003607111437831
4 0.000028109851697
5 0.000166078327326
6 -0.000139683966320
7 0.000040323582480
8 0.001716343889032
9 -0.001578784747879
10 -0.000024394761204
11 -0.000340528190567
12 0.000444311471563
13 -0.000080413544330
14 -0.000177986830086
15 0.000086310198069
16 -0.000217287056466
17 0.000413587074436
18 -0.000306554218022
19 0.000012971664339
20 0.000041314827679
21 -0.000952906045529
22 -0.000083336445887
23 -0.000033188186885
24 0.000038809539243
25 -0.000034702441682
26 0.000130525721952
27 -0.000067709305022
28 0.000007031184649
29 0.000068360941585
30 -0.000169823729533
31 -0.000008753913410
32 0.000039251413107
33 -0.000001739410266
34 -0.000203659859830
35 -0.000225127414321
36 0.000101459566360
37 -0.000014077637491
38 -0.000050474738543
39 0.000310123930079
40 -0.000004256358335
41 0.000000213754826
42 -0.000008295196972
43 0.000139241403378
44 0.000008979066249
45 0.000047872590659
46 0.99604617195548
47 0.024450761179237
48 -0.014484837645603
49 0.000057860073549
50 0.000017984840113
51 -0.000062261501157
52 0.000226966060671
53 0.000777950403129
54 -0.000958029713844
55 -0.000027982673586
56 -0.000383360877640
57 0.000742852234259
58 0.000153599873411
59 -0.000138736854862
60 0.000049161526720
61 -0.000606788488949
62 0.000047467679948
63 -0.000449705650911
64 -0.000003529268991
65 -0.000029986872129
66 0.000296556729463
67 -0.000000200348903
68 0.000036732298536
69 -0.000021636897487
70 -0.000032065585627
71 -0.000104857340919
72 0.000012246934941
73 0.000008268189321
74 0.000146193991492
75 -0.000577673934530
76 -0.000036431038392
77 -0.000002090621494
78 -0.000007598933102
79 0.000289564599590
80 -0.000196605782417
81 -0.000012004614660
82 -0.000233223709157
83 -0.000238722917525
84 -0.000007935323586
85 0.000468056230951
86 -0.000033161005392
87 -0.000306577749253
88 0.000337431904517
89 0.001808050662322
90 0.000281863422228
91 0.002236181643978
92 0.000333897765985
93 0.001892181909015
94 -0.000004121364698
95 0.000014953278073
96 -0.000018757407870
97 -0.000014304537392
 Sym=      5.1
 Ene=     -15.6349
 Spin= Alpha
 Occup=    2.000000
1 -0.000020987582038
2 -0.000213654804104
3 -0.000384834107991
4 0.000178352767955
5 -0.000051627563743
6 0.000012460804894
7 -0.001426727410144
8 0.001199970756570
9 -0.000087815909036
10 -0.000011967386467
11 -0.000208872049369
12 0.000663675573656
13 0.000047053620522
14 0.000043068050900
15 -0.000000614033378
16 0.000682752300228
17 0.000476999496912
18 0.000163281184720
19 0.000066679076656
20 -0.000562091274562
21 0.007036831555808
22 0.000391816633610
23 0.000137427718031
24 0.000046337125554
25 -0.006360453656739
26 -0.003125297857380
27 -0.000897969827314
28 -0.000004871548769
29 -0.000254629882696
30 0.000992076381058
31 -0.000007887535919
32 0.000080751081089
33 0.000002288289761
34 0.000810534216227
35 -0.000364441637478
36 0.000068797036999
37 0.99600398807863
38 0.024480983153188
39 -0.017150298492819
40 0.000482296362422
41 0.000096221656407
42 0.000051006070969
43 -0.003480967426043
44 -0.001276444684920
45 -0.000461285659414
46 0.000011179650674
47 -0.000023662134553
48 -0.000274295515951
49 0.000042660397926
50 0.000044033830940
51 0.000018947265511
52 0.000030054765024
53 -0.000221149579554
54 -0.000339138146762
55 -0.000011753597629
56 -0.000084989177577
57 0.001278211871533
58 -0.000044885688288
59 0.000017440568056
60 -0.000003860243695
61 -0.000507634536603
62 0.000632852198358
63 0.000199555808178
64 0.000000539751521
65 0.000002413719537
66 -0.000136641539192
67 0.000003260883882
68 0.000007095302749
69 -0.000001495337939
70 0.000063959773897
71 -0.000098967269855
72 0.000016270575818
73 -0.000003135586431
74 -0.000068110202914
75 0.000261832553081
76 0.000000821545320
77 0.000002802243323
78 -0.000005621831848
79 0.000006991848446
80 -0.000002597966043
81 0.000078602146773
82 -0.000122309071193
83 -0.000176483690136
84 -0.000001547632804
85 -0.000175122627532
86 0.000001801705987
87 -0.000100079908570
88 0.000063571860605
89 0.000068883029546
90 0.000067392501065
91 0.000090149617822
92 -0.000067558380654
93 -0.000156984874079
94 0.000051399835481
95 0.001520535948459
96 0.000074339446558
97 0.001744155611047
 Sym=      6.1
 Ene=     -11.4184
 Spin= Alpha
 Occup=    2.000000
1 -0.000027677848837
2 0.000047620280019
3 -0.001357706502009
4 0.000075199963000
5 -0.000020851460064
6 -0.000014702177491
7 -0.000346704296482
8 0.000530079284950
9 0.000464306065724
10 0.002438725253802
11 -0.000537026423092
12 0.006550432348673
13 0.000103309747414
14 -0.000115569519514
15 -0.000011981431410
16 -0.003321830690003
17 0.002438699905170
18 -0.000222018770253
19 0.99617558514807
20 0.024476768622216
21 -0.012748356831519
22 -0.000277774140853
23 0.000547676080136
24 -0.000046996317485
25 -0.003433654087368
26 0.004485644505273
27 0.000027726471889
28 -0.000317465373441
29 0.000450400919219
30 -0.001378141883782
31 -0.000044542155870
32 -0.000299508337385
33 -0.000032671578487
34 0.000727433035340
35 0.001062203099754
36 0.000173059842818
37 -0.000289747601178
38 -0.000174012774424
39 0.001388581435167
40 -0.000149256509887
41 0.000068660273109
42 -0.000005440722536
43 0.001098218304509
44 -0.001925941038714
45 -0.000046152322840
46 -0.000001831714333
47 -0.000065390356534
48 0.000217535656004
49 0.000109436363351
50 0.000032185298883