[Molden Format]
[Molpro variables]
_NUMVAR=  787.0000000000000    
_AVOGAD= 0.6022136736000000E+24
_BOLTZ= 0.1380658000000000E-22
_CLIGHT=  29979245800.00000    
_EV2006= 0.3674930886769165E-01
_EV= 0.3674932534394180E-01
_ENULL= 0.8854187817000000E-11
_KJOULE= 0.3808798324128737E-03
_KJOULE/MOL= 0.3808798324128737E-03
_CM= 0.4556335267302901E-05
_CM-1= 0.4556335267302901E-05
_DEB2SI= 0.3335641000000000E-29
_AMU2AU=  1822.888390000000    
_KCAL= 0.1593601117815568E-02
_KCAL/MOL= 0.1593601117815568E-02
_KELVIN2006= 0.3166828861084835E-05
_KELVIN= 0.3166814820820034E-05
_JOULE= 0.4359748200000000E-17
_HERTZ2006= 0.1519829850815779E-15
_HERTZ= 0.1519829846011223E-15
_HZ2006= 0.1519829850815779E-15
_HZ= 0.1519829846011223E-15
_JPCAL=  4.184000000000000    
_PLANCK= 0.6626075540000000E-33
_TOA2006= 0.5291772490000000    
_TOA= 0.5291772090000000    
_TOANG2006= 0.5291772490000000    
_TOANG= 0.5291772090000000    
_TORAD= 0.1745329251994330E-01
_TOCM=  219474.6306700000    
_TODEBYE=  2.541580000000000    
_TOEV2006=  27.21139610000000    
_TOE= 0.4803242000000000E-09
_TOEV=  27.21138390000000    
_TOHERTZ2006=  6579683899900000.    
_TOHERTZ=  6579683920700000.    
_TOHZ2006=  6579683899900000.    
_TOHZ=  6579683920700000.    
_TOK2006=  315773.3000000000    
_TOK=  315774.7000000000    
_TOKCAL=  627.5096000000000    
_TOKELVIN2006=  315773.3000000000    
_TOKELVIN=  315774.7000000000    
_TOKJ=  2625.500000000000    
_TOKJOULE=  2625.500000000000    
_TOKG= 0.1660565586000000E-26
_ANG2006=  1.889725988578923    
_ANG=  1.889726131421507    
_ANGSTROM2006=  1.889725988578923    
_ANGSTROM=  1.889726131421507    
_RPAREF=  0.000000000000000    
_RPADISS=  0.000000000000000    
_IGNORE_UNDEF=  2.000000000000000    
_STRICTCHECK=  0.000000000000000    
_SEW_ONEEL=  0.000000000000000    
_CPPDONE=FALSE
_DKROLL_DONE=  0.000000000000000    
_FOCKDONE=TRUE
_GRADONE=FALSE
_HESSDONE=FALSE
_INTDONE=TRUE
_SCFDONE=TRUE
_MODUL_BLOCK=FALSE
_MODUL_CUDA=FALSE
_MODUL_SLATER=FALSE
_MODUL_MRCC=FALSE
_MODUL_NBO6=FALSE
_MODUL_NECI=TRUE
_MODUL_AIMS=TRUE
_MRCC_EXEC=
_FITC_AO_SAVED=FALSE
_FITC_MO_SAVED=FALSE
_SHARED_FS=TRUE
_LSTYP=SEWARD
_INTYP=INTS
_GEOMTYP=ZMAT
_GRADTYP=ALASKA
_DIRECT=FALSE
_DKHO= -1.000000000000000    
_SYNCM=  0.000000000000000    
_BASIS=$BSET
_ZORIENT=  1.000000000000000    
_NELEC=  8.000000000000000    
!SPIN=  0.000000000000000    
_OPTCONV= 0.1249603145874190E-03
_QSDSTEP=  0.000000000000000    
_QSDIRC=  0.000000000000000    
_PROGRAM=OPTG
_CPUSTEP=  0.000000000000000    
_SYSSTEP=  0.000000000000000    
_WALLSTEP=  0.000000000000000    
!DFSCF=  0.000000000000000    
!SCSGRD=  0.000000000000000    
_BASINP=  610.0000000000000    
_CPUTOT= 0.6700000000000000    
_CPUSORT= 0.1000000000000001E-01
_SYSSORT=  0.000000000000000    
_WALLSORT= 0.1000000163912773E-01
_DFTEXFAC=  1.000000000000000    
_DMX=  0.000000000000000    
_DMY=  0.000000000000000    
_DMZ=  0.000000000000000    
_DMX_SCF=  0.000000000000000    
_DMY_SCF=  0.000000000000000    
_DMZ_SCF=  0.000000000000000    
_EHOMO=-0.1765494166346455    
_ELUMO=-0.8128829706119195E-02
_ENERGY= -29.01119499371686    
_ENUC=  4.671352103250623    
_GRADENERG= -29.01119499253267    
_GRADEXFAC=  9999.000000000000    
_GRADMETHOD=  1.000000000000000    
_NMRMETHOD=  0.000000000000000    
_VIRIAL=-0.6500349840452280E-04
!GRID_FREEZE= -1.000000000000000    
_ITERATIONS=  6.000000000000000    
_LASTNELEC=  8.000000000000000    
_LASTSPIN=  0.000000000000000    
_LASTSYM=  1.000000000000000    
_MPP_PROG=  0.000000000000000    
_NPROC_MPP=  1.000000000000000    
_NPROC_MPPX=  1.000000000000000    
_NPROC_SMP=  1.000000000000000    
_NUMSTEP=  0.000000000000000    
_OPTCONVMX= 0.1249603145874190E-03
_OPTCONVRMS= 0.1249603145874190E-03
_OPTGRAD= 0.1897908173242868E-04
_OPTGRADMX= 0.1897908173242868E-04
_OPTGRADRMS= 0.1897908173242868E-04
_OPTSTEP=  9.000000000000000    
_ORBITAL=  2100.200000000000    
_PI=  3.141592653589793    
_SEIG_MIN= 0.6252500020326856E-02
_SEWPROP=TRUE
_STATUS=  1.000000000000000    
_SYSTOT= 0.1500000000000000    
_VERSION=  2012001.000000000    
_WALLTOT= 0.8700000000000000    
_DATE=20-Nov-15
_LASTORB=RHF
_MACHINE=Linux-3.2.0-93-generic/sce-chem-c01105(x86_64) 64 bit serial version
_OUTPUT=/home/s1267651/phd_mini_30Sept2015/nikolaz_H2_1Ddensity/molpro2/Be2.xml
_PGROUP=D2h
_TIME=14:56:56
_LIBMOL=/usr/local/molpro/molprop_2012_1_Linux_x86_64_i8/lib/
!VIBCNT=  0.000000000000000    
!RGHFCNT=  0.000000000000000    
!SURFREC=  0.000000000000000    
!POLYREC=  0.000000000000000    
!DIPREC=  0.000000000000000    
!VSCFREC=  0.000000000000000    
!VCIREC=  0.000000000000000    
!PVCIREC=  0.000000000000000    
!VMP2REC=  0.000000000000000    
!VMCSCFREC=  0.000000000000000    
!VMRCIREC=  0.000000000000000    
!VIBINFO=  0.000000000000000    
!GAREC=  0.000000000000000    
!SCFORB=  21002.00000000000    
!NEWMOL=  0.000000000000000    
!NEWSYM=  0.000000000000000    
_SLFILES=slscratch
_NGSSTO=  9.000000000000000    
_SIN=SIN
_COS=COS
_TAN=TAN
_ACOS=ACOS
_ASIN=ASIN
_ATAN=ATAN
_COSH=COSH
_SINH=SINH
_TANH=TANH
_ABS=ABS
_MOD=MOD
_ERF=ERF
_REFC=REFC
_ERFC=ERFC
_HYPOT=HYPOT
_J0=J0
_J1=J1
_JN=JN
_GAMMA=GAMMA
_LGAMMA=LGAMMA
_Y0=Y0
_Y1=Y1
_YN=YN
_EXP=EXP
_LOG=LOG
_LOG10=LOG10
_SQRT=SQRT
_INT=INT
_NINT=NINT
_MAX=MAX
_MIN=MIN
_COSMO=  0.000000000000000    
_COSMOIT=  0.000000000000000    
_COSMOES=  0.000000000000000    
_COSMOEDS=  0.000000000000000    
_COSMOEC=  0.000000000000000    
_COSMOEDCORR=  0.000000000000000    
_FEPSI=  1.000000000000000    
_SL_IsMM=  0.000000000000000    
_SL_NSYM=  8.000000000000000    
_SL_System_BitSw=  0.000000000000000    
_SL_Unique_atoms=  0.000000000000000    
_SL_GRAD=  0.000000000000000    
_SL_MAXUPD_Hess=  5.000000000000000    
_SL_N_PRINT_COD=  5.000000000000000    
_SL_PRINT_CODES=  0.000000000000000    
_SL_BasType=  0.000000000000000    
_SL_Energy_Pred=  0.000000000000000    
_SL_New_Coords=  0.000000000000000    
_SL_Total_Nuclea=  0.000000000000000    
_SL_Highest_Mltp=  0.000000000000000    
_SL_Ref_Geom=  0.000000000000000    
_SL_Symmetry_ope=  1.000000000000000    
_SL_agrad=  0.000000000000000    
_SL_GrdMax=  0.000000000000000    
_SL_GrdNorm=  0.000000000000000    
_SL_GrdRMS=  0.000000000000000    
_SL_Hss_Q=  0.000000000000000    
_SL_Hss_X=  0.000000000000000    
_SL_BMxOld=  0.000000000000000    
_SL_KtB=  0.000000000000000    
!LATTICE= -1.000000000000000    
!NEWLATTICE=  0.000000000000000    
!LATGRAD_VAR=FALSE
!SEW_LATTICE=  1.000000000000000    
!LOCAL=  0.000000000000000    
!SAVEDOM= -1.000000000000000    
!RESTDOM= -1.000000000000000    
!SAVEDOM_HF= -1.000000000000000    
!RESTDOM_HF= -1.000000000000000    
!HESSREC=  0.000000000000000    
!FREQREC=  0.000000000000000    
!NMODREC=  0.000000000000000    
!GTASKS=  0.000000000000000    
!HTASKS=  0.000000000000000    
!THRCHG= 0.1000000000000000    
!DEBUG= -1.000000000000000    
!CFIT_CPHF=  0.000000000000000    
!RDOMAUX_CPHF=  5.000000000000000    
!THRAO_CPHF= 0.9999999999999999E-11
!THRMO_CPHF= 0.9999999999999999E-11
!THROV_CPHF= 0.1000000000000000E-11
!THRSW_CPHF= 0.1000000000000000E-09
!THRPROD_CPHF= 0.9999999999999999E-11
!THRAOPR_CPHF= 0.1000000000000000E-11
!CFIT_SCFGRD=  0.000000000000000    
!RDOMAUX_SCFGRD=  7.000000000000000    
!THRAO_SCFGRD= 0.9999999999999999E-11
!THRMO_SCFGRD= 0.9999999999999999E-11
!THROV_SCFGRD= 0.1000000000000000E-11
!THRSW_SCFGRD= 0.1000000000000000E-09
!THRPROD_SCFGRD= 0.9999999999999999E-11
!THRAOPR_SCFGRD= 0.1000000000000000E-11
!LOCFIT_SCF=  0.000000000000000    
!LOCFIT_MP2= -1.000000000000000    
_RIDOM=  0.000000000000000    
!CC2_METHOD=  0.000000000000000    
_BASIS2006=FALSE
_SVDDEL= -1.000000000000000    
_SVDDELA= -1.000000000000000    
_SVDDELP= -1.000000000000000    
_SVDDELF= -1.000000000000000    
_SVDDELS= -1.000000000000000    
_SVDDEL_ABS= -1.000000000000000    
_SVDDELA_ABS= -1.000000000000000    
_SVDDELP_ABS= -1.000000000000000    
_SVDDELF_ABS= -1.000000000000000    
_SVDDELS_ABS= -1.000000000000000    
_MAXBASIS=  0.000000000000000    
!OPT_CONICAL=  0.000000000000000    
!CLEARSP_JGRID=  0.000000000000000    
_4EXT_NDISKS=  1.000000000000000    
!ZMP=  0.000000000000000    
_MAXIT_ZMP=  500.0000000000000    
_MAXDIS_ZMP=  100.0000000000000    
_ACCU_ZMP=  14.00000000000000    
_SHIFTA_ZMP= -100.0000000000000    
!EMBEDFLAG=  1.000000000000000    
!EMBED=FALSE
!EMBED_F12=FALSE
!EMBEDNUC=  0.000000000000000    
_EMBEDENERGY=  0.000000000000000    
_KSPACETIME=  0.000000000000000    
_RSPACETIME=  0.000000000000000    
!EMBED_DFC=FALSE
!NUM_VOIDS=  0.000000000000000    
_IBODY=  0.000000000000000    
_EMBE_TOTAL=  0.000000000000000    
_EMBE_HF=  0.000000000000000    
_EMBE_CORR=  0.000000000000000    
!EDFT=  0.000000000000000    
_IFASTLATGRAD=  0.000000000000000    
_SINDEX=  0.000000000000000    
A=BE
B=BE
BSET=6-31G
R=  3.425132519740095    
GX1=  0.000000000000000    
GY1=  0.000000000000000    
GZ1= -1.712566259870048    
GX2=  0.000000000000000    
GY2=  0.000000000000000    
GZ2=  1.712566259870048    
STR=../input/BEBE_6-31G_hf.mld
[Atoms] Angs
BE    1    4         0.0000000000        0.0000000000       -0.9062510336
BE    2    4         0.0000000000        0.0000000000        0.9062510336
[GTO]
  1 0
 s    6  1.00
  0.1264585700D+04  0.1944757603D-02
  0.1899368100D+03  0.1483505202D-01
  0.4315908900D+02  0.7209054611D-01
  0.1209866300D+02  0.2371541503D+00
  0.3806323200D+01  0.4691986507D+00
  0.1272890300D+01  0.3565202305D+00
 s    3  1.00
  0.3196463100D+01 -0.1126487263D+00
  0.7478133000D+00 -0.2295064025D+00
  0.2199663300D+00  0.1186916761D+01
 s    1  1.00
  0.8230990100D-01  0.1000000000D+01
 p    3  1.00
  0.3196463100D+01  0.5598019996D-01
  0.7478133000D+00  0.2615506098D+00
  0.2199663300D+00  0.7939723395D+00
 p    1  1.00
  0.8230990100D-01  0.1000000000D+01
  
  2 0
 s    6  1.00
  0.1264585700D+04  0.1944757603D-02
  0.1899368100D+03  0.1483505202D-01
  0.4315908900D+02  0.7209054611D-01
  0.1209866300D+02  0.2371541503D+00
  0.3806323200D+01  0.4691986507D+00
  0.1272890300D+01  0.3565202305D+00
 s    3  1.00
  0.3196463100D+01 -0.1126487263D+00
  0.7478133000D+00 -0.2295064025D+00
  0.2199663300D+00  0.1186916761D+01
 s    1  1.00
  0.8230990100D-01  0.1000000000D+01
 p    3  1.00
  0.3196463100D+01  0.5598019996D-01
  0.7478133000D+00  0.2615506098D+00
  0.2199663300D+00  0.7939723395D+00
 p    1  1.00
  0.8230990100D-01  0.1000000000D+01
 
 
[MO]
 Sym=      1.1
 Ene=      -4.7098
 Spin= Alpha
 Occup=    2.000000
1 0.70503295138485
2 0.013195254285794
3 -0.004038911752330
4 0.0
5 0.0
6 -0.001945694369685
7 0.0
8 0.0
9 0.001244136996812
10 0.70503295138485
11 0.013195254285794
12 -0.004038911752330
13 0.0
14 0.0
15 0.001945694369685
16 0.0
17 0.0
18 -0.001244136996812
 Sym=      1.5
 Ene=      -4.7084
 Spin= Alpha
 Occup=    2.000000
1 0.70587712004804
2 0.013045417800766
3 -0.008370662220852
4 0.0
5 0.0
6 -0.003176777126494
7 0.0
8 0.0
9 -0.000507829802348
10 -0.70587712004804
11 -0.013045417800766
12 0.008370662220852
13 0.0
14 0.0
15 -0.003176777126494
16 0.0
17 0.0
18 -0.000507829802348
 Sym=      2.1
 Ene=      -0.3862
 Spin= Alpha
 Occup=    2.000000
1 -0.17175278433497
2 0.22064513394226
3 0.33497352783993
4 0.0
5 0.0
6 0.14133555076674
7 0.0
8 0.0
9 0.003422824292555
10 -0.17175278433497
11 0.22064513394226
12 0.33497352783993
13 0.0
14 0.0
15 -0.14133555076674
16 0.0
17 0.0
18 -0.003422824292555
 Sym=      1.2
 Ene=      -0.1765
 Spin= Alpha
 Occup=    2.000000
1 0.0
2 0.0
3 0.0
4 0.31587681746255
5 0.0
6 0.0
7 0.32740127524589
8 0.0
9 0.0
10 0.0
11 0.0
12 0.0
13 0.31587681746255
14 0.0
15 0.0
16 0.32740127524589
17 0.0
18 0.0
 Sym=      2.5
 Ene=      -0.0081
 Spin= Alpha
 Occup=    0.000000
1 -0.12049023105692
2 0.12975995352352
3 -0.061328451917168
4 0.0
5 0.0
6 -0.11777125193041
7 0.0
8 0.0
9 -0.59871103445605
10 0.12049023105692
11 -0.12975995352352
12 0.061328451917168
13 0.0
14 0.0
15 -0.11777125193041
16 0.0
17 0.0
18 -0.59871103445605
 Sym=      1.3
 Ene=       0.0485
 Spin= Alpha
 Occup=    0.000000
1 0.0
2 0.0
3 0.0
4 0.0
5 0.21451385300216
6 0.0
7 0.0
8 0.40853785155774
9 0.0
10 0.0
11 0.0
12 0.0
13 0.0
14 0.21451385300216
15 0.0
16 0.0
17 0.40853785155774
18 0.0
 Sym=      3.1
 Ene=       0.0706
 Spin= Alpha
 Occup=    0.000000
1 0.011953165402616
2 0.091776665591023
3 -0.45709449554693
4 0.0
5 0.0
6 0.25415197329798
7 0.0
8 0.0
9 0.49637283339314
10 0.011953165402616
11 0.091776665591023
12 -0.45709449554693
13 0.0
14 0.0
15 -0.25415197329798
16 0.0
17 0.0
18 -0.49637283339314
 Sym=      1.6
 Ene=       0.1543
 Spin= Alpha
 Occup=    0.000000
1 0.0
2 0.0
3 0.0
4 0.20225229656395
5 0.0
6 0.0
7 0.93855382924886
8 0.0
9 0.0
10 0.0
11 0.0
12 0.0
13 -0.20225229656395
14 0.0
15 0.0
16 -0.93855382924886
17 0.0
18 0.0
 Sym=      1.7
 Ene=       0.1657
 Spin= Alpha
 Occup=    0.000000
1 0.0
2 0.0
3 0.0
4 0.0
5 0.14809511320399
6 0.0
7 0.0
8 0.99770084277360
9 0.0
10 0.0
11 0.0
12 0.0
13 0.0
14 -0.14809511320399
15 0.0
16 0.0
17 -0.99770084277360
18 0.0
 Sym=      3.5
 Ene=       0.2759
 Spin= Alpha
 Occup=    0.000000
1 0.15428954882795
2 -0.023335177247169
3 -4.59743663519420
4 0.0
5 0.0
6 0.16939459568177
7 0.0
8 0.0
9 -2.87186200407925
10 -0.15428954882795
11 0.023335177247169
12 4.59743663519420
13 0.0
14 0.0
15 0.16939459568177
16 0.0
17 0.0
18 -2.87186200407925
 Sym=      4.1
 Ene=       0.3826
 Spin= Alpha
 Occup=    0.000000
1 0.046416606594209
2 0.32512926419878
3 -0.10335892610629
4 0.0
5 0.0
6 0.74748205555084
7 0.0
8 0.0
9 -1.02954163471784
10 0.046416606594209
11 0.32512926419878
12 -0.10335892610629
13 0.0
14 0.0
15 -0.74748205555084
16 0.0
17 0.0
18 1.02954163471784
 Sym=      2.2
 Ene=       0.4323
 Spin= Alpha
 Occup=    0.000000
1 0.0
2 0.0
3 0.0
4 -0.85627616139622
5 0.0
6 0.0
7 0.71914755036835
8 0.0
9 0.0
10 0.0
11 0.0
12 0.0
13 -0.85627616139622
14 0.0
15 0.0
16 0.71914755036835
17 0.0
18 0.0
 Sym=      2.3
 Ene=       0.4336
 Spin= Alpha
 Occup=    0.000000
1 0.0
2 0.0
3 0.0
4 0.0
5 -0.88711376680552
6 0.0
7 0.0
8 0.67635908959518
9 0.0
10 0.0
11 0.0
12 0.0
13 0.0
14 -0.88711376680552
15 0.0
16 0.0
17 0.67635908959518
18 0.0
 Sym=      5.1
 Ene=       0.4477
 Spin= Alpha
 Occup=    0.000000
1 0.018704860801059
2 1.39761219457901
3 -1.14944904247623
4 0.0
5 0.0
6 -0.28552512045650
7 0.0
8 0.0
9 0.029861126998953
10 0.018704860801059
11 1.39761219457901
12 -1.14944904247623
13 0.0
14 0.0
15 0.28552512045650
16 0.0
17 0.0
18 -0.029861126998953
 Sym=      2.7
 Ene=       0.5207
 Spin= Alpha
 Occup=    0.000000
1 0.0
2 0.0
3 0.0
4 0.0
5 1.01010879310735
6 0.0
7 0.0
8 -1.07194856563985
9 0.0
10 0.0
11 0.0
12 0.0
13 0.0
14 -1.01010879310735
15 0.0
16 0.0
17 1.07194856563985
18 0.0
 Sym=      2.6
 Ene=       0.5221
 Spin= Alpha
 Occup=    0.000000
1 0.0
2 0.0
3 0.0
4 1.00067274620742
5 0.0
6 0.0
7 -1.12409848707788
8 0.0
9 0.0
10 0.0
11 0.0
12 0.0
13 -1.00067274620742
14 0.0
15 0.0
16 1.12409848707788
17 0.0
18 0.0
 Sym=      4.5
 Ene=       0.5455
 Spin= Alpha
 Occup=    0.000000
1 0.085918292973757
2 1.14191455265305
3 -4.26060012492330
4 0.0
5 0.0
6 -0.79154113290160
7 0.0
8 0.0
9 -1.33989784488006
10 -0.085918292973757
11 -1.14191455265305
12 4.26060012492330
13 0.0
14 0.0
15 -0.79154113290160
16 0.0
17 0.0
18 -1.33989784488006
 Sym=      5.5
 Ene=       0.8942
 Spin= Alpha
 Occup=    0.000000
1 0.073762037616919
2 1.85715910570281
3 -4.80957772126709
4 0.0
5 0.0
6 1.01731448387405
7 0.0
8 0.0
9 -2.25819975893857
10 -0.073762037616919
11 -1.85715910570281
12 4.80957772126709
13 0.0
14 0.0
15 1.01731448387405
16 0.0
17 0.0
18 -2.25819975893857
