[Molden Format]
[Molpro variables]
_NUMVAR=  821.0000000000000    
_AVOGAD= 0.6022136736000000E+24
_BOLTZ= 0.1380658000000000E-22
_CLIGHT=  29979245800.00000    
_EV2006= 0.3674930886769165E-01
_EV= 0.3674932534394180E-01
_ENULL= 0.8854187817000000E-11
_KJOULE= 0.3808798324128737E-03
_KJOULE/MOL= 0.3808798324128737E-03
_CM= 0.4556335267302901E-05
_CM-1= 0.4556335267302901E-05
_DEB2SI= 0.3335641000000000E-29
_AMU2AU=  1822.888390000000    
_KCAL= 0.1593601117815568E-02
_KCAL/MOL= 0.1593601117815568E-02
_KELVIN2006= 0.3166828861084835E-05
_KELVIN= 0.3166814820820034E-05
_JOULE= 0.4359748200000000E-17
_HERTZ2006= 0.1519829850815779E-15
_HERTZ= 0.1519829846011223E-15
_HZ2006= 0.1519829850815779E-15
_HZ= 0.1519829846011223E-15
_JPCAL=  4.184000000000000    
_PLANCK= 0.6626075540000000E-33
_TOA2006= 0.5291772490000000    
_TOA= 0.5291772090000000    
_TOANG2006= 0.5291772490000000    
_TOANG= 0.5291772090000000    
_TORAD= 0.1745329251994330E-01
_TOCM=  219474.6306700000    
_TODEBYE=  2.541580000000000    
_TOEV2006=  27.21139610000000    
_TOE= 0.4803242000000000E-09
_TOEV=  27.21138390000000    
_TOHERTZ2006=  6579683899900000.    
_TOHERTZ=  6579683920700000.    
_TOHZ2006=  6579683899900000.    
_TOHZ=  6579683920700000.    
_TOK2006=  315773.3000000000    
_TOK=  315774.7000000000    
_TOKCAL=  627.5096000000000    
_TOKELVIN2006=  315773.3000000000    
_TOKELVIN=  315774.7000000000    
_TOKJ=  2625.500000000000    
_TOKJOULE=  2625.500000000000    
_TOKG= 0.1660565586000000E-26
_ANG2006=  1.889725988578923    
_ANG=  1.889726131421507    
_ANGSTROM2006=  1.889725988578923    
_ANGSTROM=  1.889726131421507    
_RPAREF=  0.000000000000000    
_RPADISS=  0.000000000000000    
_IGNORE_UNDEF=  2.000000000000000    
_STRICTCHECK=  0.000000000000000    
_SEW_ONEEL=  0.000000000000000    
_CPPDONE=FALSE
_DKROLL_DONE=  0.000000000000000    
_FOCKDONE=TRUE
_GRADONE=FALSE
_HESSDONE=FALSE
_INTDONE=TRUE
_SCFDONE=TRUE
_MODUL_BLOCK=FALSE
_MODUL_CUDA=FALSE
_MODUL_SLATER=FALSE
_MODUL_MRCC=FALSE
_MODUL_NBO6=FALSE
_MODUL_NECI=TRUE
_MODUL_AIMS=TRUE
_MRCC_EXEC=
_FITC_AO_SAVED=FALSE
_FITC_MO_SAVED=FALSE
_SHARED_FS=TRUE
_LSTYP=SEWARD
_INTYP=INTS
_GEOMTYP=ZMAT
_GRADTYP=ALASKA
_DIRECT=FALSE
_DKHO= -1.000000000000000    
_SYNCM=  0.000000000000000    
_BASIS=$BSET
_ZORIENT=  1.000000000000000    
_NELEC=  64.00000000000000    
!SPIN=  0.000000000000000    
_QSDSTEP=  0.000000000000000    
_QSDIRC=  0.000000000000000    
_PROGRAM=HF-SCF
_CPUSTEP= 0.5599999999999998    
_SYSSTEP= 0.2000000000000000E-01
_WALLSTEP= 0.5800000000000000    
!DFSCF=  0.000000000000000    
!SCSGRD=  0.000000000000000    
_BASINP=  610.0000000000000    
_CPUTOT=  2.030000000000000    
_CPUSORT= 0.2000000000000000    
_SYSSORT= 0.8000000000000000E-01
_WALLSORT= 0.2799999974668026    
_DFTEXFAC=  1.000000000000000    
_DMX= -3.917777058739738    
_DMY= -2.102733024710069    
_DMZ=-0.5413653483040903E-02
_DMX_SCF= -3.917777058739738    
_DMY_SCF= -2.102733024710069    
_DMZ_SCF=-0.5413653483040903E-02
_EHOMO=-0.3290758476058884    
_ELUMO= 0.1061257383683421    
_ENERGY= -719.1146345151794    
_ENUC=  376.9923732249342    
_GRADEXFAC=  9999.000000000000    
_GRADMETHOD=  1.000000000000000    
_NMRMETHOD=  0.000000000000000    
!GRID_FREEZE= -1.000000000000000    
_ITERATIONS=  11.00000000000000    
_LASTNELEC=  64.00000000000000    
_LASTSPIN=  0.000000000000000    
_LASTSYM=  1.000000000000000    
_MPP_PROG=  0.000000000000000    
_NPROC_MPP=  1.000000000000000    
_NPROC_MPPX=  1.000000000000000    
_NPROC_SMP=  1.000000000000000    
_NUMSTEP=  0.000000000000000    
_ORBITAL=  2100.200000000000    
_PI=  3.141592653589793    
_SEIG_MIN= 0.4656973061121561E-02
_SEWPROP=TRUE
_STATUS=  1.000000000000000    
_SYSTOT= 0.1200000000000000    
_VERSION=  2012001.000000000    
_WALLTOT=  2.180000000000000    
_DATE=23-Sep-15
_LASTORB=RHF
_MACHINE=Linux-3.2.0-90-generic/sce-chem-c01105(x86_64) 64 bit serial version
_OUTPUT=/home/s1267651/phd_mini_19Sept2015/protein/molpro2/cysteine_6-31g_scf.xml
_PGROUP=C1
_TIME=17:53:41
_LIBMOL=/usr/local/molpro/molprop_2012_1_Linux_x86_64_i8/lib/
!VIBCNT=  0.000000000000000    
!RGHFCNT=  0.000000000000000    
!SURFREC=  0.000000000000000    
!POLYREC=  0.000000000000000    
!DIPREC=  0.000000000000000    
!VSCFREC=  0.000000000000000    
!VCIREC=  0.000000000000000    
!PVCIREC=  0.000000000000000    
!VMP2REC=  0.000000000000000    
!VMCSCFREC=  0.000000000000000    
!VMRCIREC=  0.000000000000000    
!VIBINFO=  0.000000000000000    
!GAREC=  0.000000000000000    
!SCFORB=  21002.00000000000    
!NEWMOL= -1.000000000000000    
!NEWSYM= -1.000000000000000    
_SLFILES=slscratch
_NGSSTO=  9.000000000000000    
_SIN=SIN
_COS=COS
_TAN=TAN
_ACOS=ACOS
_ASIN=ASIN
_ATAN=ATAN
_COSH=COSH
_SINH=SINH
_TANH=TANH
_ABS=ABS
_MOD=MOD
_ERF=ERF
_REFC=REFC
_ERFC=ERFC
_HYPOT=HYPOT
_J0=J0
_J1=J1
_JN=JN
_GAMMA=GAMMA
_LGAMMA=LGAMMA
_Y0=Y0
_Y1=Y1
_YN=YN
_EXP=EXP
_LOG=LOG
_LOG10=LOG10
_SQRT=SQRT
_INT=INT
_NINT=NINT
_MAX=MAX
_MIN=MIN
_COSMO=  0.000000000000000    
_COSMOIT=  0.000000000000000    
_COSMOES=  0.000000000000000    
_COSMOEDS=  0.000000000000000    
_COSMOEC=  0.000000000000000    
_COSMOEDCORR=  0.000000000000000    
_FEPSI=  1.000000000000000    
_SL_IsMM=  0.000000000000000    
_SL_NSYM=  1.000000000000000    
_SL_System_BitSw=  0.000000000000000    
_SL_Unique_atoms=  0.000000000000000    
_SL_GRAD=  0.000000000000000    
_SL_MAXUPD_Hess=  5.000000000000000    
_SL_N_PRINT_COD=  5.000000000000000    
_SL_PRINT_CODES=  0.000000000000000    
_SL_BasType=  0.000000000000000    
_SL_Energy_Pred=  0.000000000000000    
_SL_New_Coords=  0.000000000000000    
_SL_Total_Nuclea=  0.000000000000000    
_SL_Highest_Mltp=  0.000000000000000    
_SL_Ref_Geom=  0.000000000000000    
_SL_Symmetry_ope=  1.000000000000000    
_SL_agrad=  0.000000000000000    
_SL_GrdMax=  0.000000000000000    
_SL_GrdNorm=  0.000000000000000    
_SL_GrdRMS=  0.000000000000000    
_SL_Hss_Q=  0.000000000000000    
_SL_Hss_X=  0.000000000000000    
_SL_BMxOld=  0.000000000000000    
_SL_KtB=  0.000000000000000    
!LATTICE= -1.000000000000000    
!NEWLATTICE=  0.000000000000000    
!LATGRAD_VAR=FALSE
!SEW_LATTICE=  1.000000000000000    
!LOCAL=  0.000000000000000    
!SAVEDOM= -1.000000000000000    
!RESTDOM= -1.000000000000000    
!SAVEDOM_HF= -1.000000000000000    
!RESTDOM_HF= -1.000000000000000    
!HESSREC=  0.000000000000000    
!FREQREC=  0.000000000000000    
!NMODREC=  0.000000000000000    
!GTASKS=  0.000000000000000    
!HTASKS=  0.000000000000000    
!THRCHG= 0.1000000000000000    
!DEBUG= -1.000000000000000    
!CFIT_CPHF=  0.000000000000000    
!RDOMAUX_CPHF=  3.000000000000000    
!THRAO_CPHF= 0.1000000000000000E-09
!THRMO_CPHF= 0.1000000000000000E-08
!THROV_CPHF= 0.1000000000000000E-11
!THRSW_CPHF= 0.1000000000000000E-09
!THRPROD_CPHF= 0.1000000000000000E-08
!THRAOPR_CPHF= 0.1000000000000000E-11
!CFIT_SCFGRD=  0.000000000000000    
!RDOMAUX_SCFGRD=  5.000000000000000    
!THRAO_SCFGRD= 0.1000000000000000E-09
!THRMO_SCFGRD= 0.1000000000000000E-08
!THROV_SCFGRD= 0.1000000000000000E-11
!THRSW_SCFGRD= 0.1000000000000000E-09
!THRPROD_SCFGRD= 0.1000000000000000E-08
!THRAOPR_SCFGRD= 0.1000000000000000E-11
!LOCFIT_SCF=  0.000000000000000    
!LOCFIT_MP2= -1.000000000000000    
_RIDOM=  0.000000000000000    
!CC2_METHOD=  0.000000000000000    
_BASIS2006=FALSE
_SVDDEL= -1.000000000000000    
_SVDDELA= -1.000000000000000    
_SVDDELP= -1.000000000000000    
_SVDDELF= -1.000000000000000    
_SVDDELS= -1.000000000000000    
_SVDDEL_ABS= -1.000000000000000    
_SVDDELA_ABS= -1.000000000000000    
_SVDDELP_ABS= -1.000000000000000    
_SVDDELF_ABS= -1.000000000000000    
_SVDDELS_ABS= -1.000000000000000    
_MAXBASIS=  0.000000000000000    
!OPT_CONICAL=  0.000000000000000    
!CLEARSP_JGRID=  0.000000000000000    
_4EXT_NDISKS=  1.000000000000000    
!ZMP=  0.000000000000000    
_MAXIT_ZMP=  500.0000000000000    
_MAXDIS_ZMP=  100.0000000000000    
_ACCU_ZMP=  14.00000000000000    
_SHIFTA_ZMP= -100.0000000000000    
!EMBEDFLAG=  1.000000000000000    
!EMBED=FALSE
!EMBED_F12=FALSE
!EMBEDNUC=  0.000000000000000    
_EMBEDENERGY=  0.000000000000000    
_KSPACETIME=  0.000000000000000    
_RSPACETIME=  0.000000000000000    
!EMBED_DFC=FALSE
!NUM_VOIDS=  0.000000000000000    
_IBODY=  0.000000000000000    
_EMBE_TOTAL=  0.000000000000000    
_EMBE_HF=  0.000000000000000    
_EMBE_CORR=  0.000000000000000    
!EDFT=  0.000000000000000    
_IFASTLATGRAD=  0.000000000000000    
_SINDEX=  0.000000000000000    
TITLE=CYSTEINE
BSET=6-31G
GX1= 0.7190000000000000    
GY1=-0.1540000000000000    
GZ1= 0.1000000000000000E-01
GX2= 0.1250000000000000    
GY2= -1.054000000000000    
GZ2=  1.046000000000000    
GX3=  1.997000000000000    
GY3= 0.4500000000000001    
GZ3= 0.5410000000000000    
GX4=  3.052000000000000    
GY4= 0.2520000000000000    
GZ4=-0.4000000000000000E-01
GX5=  1.975000000000000    
GY5=  1.163000000000000    
GZ5=  1.591000000000000    
GX6=-0.2710000000000000    
GY6= 0.9620000000000003    
GZ6=-0.3220000000000000    
GX7= -1.812000000000000    
GY7= 0.2350000000000000    
GZ7=-0.9620000000000003    
GX8= 0.9340000000000001    
GY8=-0.7270000000000000    
GZ8=-0.8890000000000000    
GX9= 0.1600000000000000    
GY9=  1.617000000000000    
GZ9= -1.076000000000000    
GX10=-0.4870000000000000    
GY10=  1.535000000000000    
GZ10= 0.5770000000000000    
GX11=-0.7510000000000000    
GY11= -1.468000000000000    
GZ11= 0.6820000000000001    
GX12= 0.7960000000000000    
GY12= -1.810000000000000    
GZ12=  1.271000000000000    
GX13=-0.8000000000000000E-01
GY13=-0.5090000000000000    
GZ13=  1.901000000000000    
GX14= -2.480000000000000    
GY14=  1.366000000000000    
GZ14= -1.167000000000000    
STR=../input/CYSTEINE_6-31G_scf.mld
[Atoms] Angs
C     1    6         0.7190000000       -0.1540000000        0.0100000000
N     2    7         0.1250000000       -1.0540000000        1.0460000000
C     3    6         1.9970000000        0.4500000000        0.5410000000
O     4    8         3.0520000000        0.2520000000       -0.0400000000
O     5    8         1.9750000000        1.1630000000        1.5910000000
C     6    6        -0.2710000000        0.9620000000       -0.3220000000
S     7   16        -1.8120000000        0.2350000000       -0.9620000000
H     8    1         0.9340000000       -0.7270000000       -0.8890000000
H     9    1         0.1600000000        1.6170000000       -1.0760000000
H    10    1        -0.4870000000        1.5350000000        0.5770000000
H    11    1        -0.7510000000       -1.4680000000        0.6820000000
H    12    1         0.7960000000       -1.8100000000        1.2710000000
H    13    1        -0.0800000000       -0.5090000000        1.9010000000
H    14    1        -2.4800000000        1.3660000000       -1.1670000000
[GTO]
  1 0
 s    6  1.00
  0.3047524900D+04  0.1834737091D-02
  0.4573695200D+03  0.1403732293D-01
  0.1039486800D+03  0.6884262165D-01
  0.2921015500D+02  0.2321844388D+00
  0.9286663000D+01  0.4679413476D+00
  0.3163927000D+01  0.3623119882D+00
 s    3  1.00
  0.7868272300D+01 -0.1193324245D+00
  0.1881288500D+01 -0.1608541561D+00
  0.5442492600D+00  0.1143456443D+01
 s    1  1.00
  0.1687144800D+00  0.1000000000D+01
 p    3  1.00
  0.7868272300D+01  0.6899906693D-01
  0.1881288500D+01  0.3164239597D+00
  0.5442492600D+00  0.7443082892D+00
 p    1  1.00
  0.1687144800D+00  0.1000000000D+01
  
  2 0
 s    6  1.00
  0.4173511500D+04  0.1834772199D-02
  0.6274579100D+03  0.1399462699D-01
  0.1429020900D+03  0.6858655195D-01
  0.4023432900D+02  0.2322408698D+00
  0.1282021300D+02  0.4690699496D+00
  0.4390437000D+01  0.3604551997D+00
 s    3  1.00
  0.1162636200D+02 -0.1149611854D+00
  0.2716279800D+01 -0.1691174879D+00
  0.7722184000D+00  0.1145851954D+01
 s    1  1.00
  0.2120315000D+00  0.1000000000D+01
 p    3  1.00
  0.1162636200D+02  0.6757974372D-01
  0.2716279800D+01  0.3239072986D+00
  0.7722184000D+00  0.7408951369D+00
 p    1  1.00
  0.2120315000D+00  0.1000000000D+01
  
  3 0
 s    6  1.00
  0.3047524900D+04  0.1834737091D-02
  0.4573695200D+03  0.1403732293D-01
  0.1039486800D+03  0.6884262165D-01
  0.2921015500D+02  0.2321844388D+00
  0.9286663000D+01  0.4679413476D+00
  0.3163927000D+01  0.3623119882D+00
 s    3  1.00
  0.7868272300D+01 -0.1193324245D+00
  0.1881288500D+01 -0.1608541561D+00
  0.5442492600D+00  0.1143456443D+01
 s    1  1.00
  0.1687144800D+00  0.1000000000D+01
 p    3  1.00
  0.7868272300D+01  0.6899906693D-01
  0.1881288500D+01  0.3164239597D+00
  0.5442492600D+00  0.7443082892D+00
 p    1  1.00
  0.1687144800D+00  0.1000000000D+01
  
  4 0
 s    6  1.00
  0.5484671700D+04  0.1831074396D-02
  0.8252349500D+03  0.1395017197D-01
  0.1880469600D+03  0.6844507786D-01
  0.5296450000D+02  0.2327143395D+00
  0.1689757000D+02  0.4701928990D+00
  0.5799635300D+01  0.3585208493D+00
 s    3  1.00
  0.1553961600D+02 -0.1107775519D+00
  0.3599933600D+01 -0.1480262626D+00
  0.1013761800D+01  0.1130767020D+01
 s    1  1.00
  0.2700058200D+00  0.1000000000D+01
 p    3  1.00
  0.1553961600D+02  0.7087426737D-01
  0.3599933600D+01  0.3397528370D+00
  0.1013761800D+01  0.7271585736D+00
 p    1  1.00
  0.2700058200D+00  0.1000000000D+01
  
  5 0
 s    6  1.00
  0.5484671700D+04  0.1831074396D-02
  0.8252349500D+03  0.1395017197D-01
  0.1880469600D+03  0.6844507786D-01
  0.5296450000D+02  0.2327143395D+00
  0.1689757000D+02  0.4701928990D+00
  0.5799635300D+01  0.3585208493D+00
 s    3  1.00
  0.1553961600D+02 -0.1107775519D+00
  0.3599933600D+01 -0.1480262626D+00
  0.1013761800D+01  0.1130767020D+01
 s    1  1.00
  0.2700058200D+00  0.1000000000D+01
 p    3  1.00
  0.1553961600D+02  0.7087426737D-01
  0.3599933600D+01  0.3397528370D+00
  0.1013761800D+01  0.7271585736D+00
 p    1  1.00
  0.2700058200D+00  0.1000000000D+01
  
  6 0
 s    6  1.00
  0.3047524900D+04  0.1834737091D-02
  0.4573695200D+03  0.1403732293D-01
  0.1039486800D+03  0.6884262165D-01
  0.2921015500D+02  0.2321844388D+00
  0.9286663000D+01  0.4679413476D+00
  0.3163927000D+01  0.3623119882D+00
 s    3  1.00
  0.7868272300D+01 -0.1193324245D+00
  0.1881288500D+01 -0.1608541561D+00
  0.5442492600D+00  0.1143456443D+01
 s    1  1.00
  0.1687144800D+00  0.1000000000D+01
 p    3  1.00
  0.7868272300D+01  0.6899906693D-01
  0.1881288500D+01  0.3164239597D+00
  0.5442492600D+00  0.7443082892D+00
 p    1  1.00
  0.1687144800D+00  0.1000000000D+01
  
  7 0
 s    6  1.00
  0.2191710000D+05  0.1869240849D-02
  0.3301490000D+04  0.1423030646D-01
  0.7541460000D+03  0.6969623166D-01
  0.2127110000D+03  0.2384871083D+00
  0.6798960000D+02  0.4833072195D+00
  0.2305150000D+02  0.3380741536D+00
 s    6  1.00
  0.4237350000D+03 -0.2376770499D-02
  0.1007100000D+03 -0.3169300665D-01
  0.3215990000D+02 -0.1133170238D+00
  0.1180790000D+02  0.5609001177D-01
  0.4631100000D+01  0.5922551243D+00
  0.1870250000D+01  0.4550060955D+00
 s    3  1.00
  0.2615840000D+01 -0.2503731142D+00
  0.9221670000D+00  0.6695676310D-01
  0.3412870000D+00  0.1054506269D+01
 s    1  1.00
  0.1171670000D+00  0.1000000000D+01
 p    6  1.00
  0.4237350000D+03  0.4061009982D-02
  0.1007100000D+03  0.3068129986D-01
  0.3215990000D+02  0.1304519994D+00
  0.1180790000D+02  0.3272049985D+00
  0.4631100000D+01  0.4528509980D+00
  0.1870250000D+01  0.2560419989D+00
 p    3  1.00
  0.2615840000D+01 -0.1451048955D-01
  0.9221670000D+00  0.3102627765D+00
  0.3412870000D+00  0.7544824565D+00
 p    1  1.00
  0.1171670000D+00  0.1000000000D+01
  
  8 0
 s    3  1.00
  0.1873113700D+02  0.3349460400D-01
  0.2825394400D+01  0.2347269500D+00
  0.6401216900D+00  0.8137573301D+00
 s    1  1.00
  0.1612777600D+00  0.1000000000D+01
  
  9 0
 s    3  1.00
  0.1873113700D+02  0.3349460400D-01
  0.2825394400D+01  0.2347269500D+00
  0.6401216900D+00  0.8137573301D+00
 s    1  1.00
  0.1612777600D+00  0.1000000000D+01
  
 10 0
 s    3  1.00
  0.1873113700D+02  0.3349460400D-01
  0.2825394400D+01  0.2347269500D+00
  0.6401216900D+00  0.8137573301D+00
 s    1  1.00
  0.1612777600D+00  0.1000000000D+01
  
 11 0
 s    3  1.00
  0.1873113700D+02  0.3349460400D-01
  0.2825394400D+01  0.2347269500D+00
  0.6401216900D+00  0.8137573301D+00
 s    1  1.00
  0.1612777600D+00  0.1000000000D+01
  
 12 0
 s    3  1.00
  0.1873113700D+02  0.3349460400D-01
  0.2825394400D+01  0.2347269500D+00
  0.6401216900D+00  0.8137573301D+00
 s    1  1.00
  0.1612777600D+00  0.1000000000D+01
  
 13 0
 s    3  1.00
  0.1873113700D+02  0.3349460400D-01
  0.2825394400D+01  0.2347269500D+00
  0.6401216900D+00  0.8137573301D+00
 s    1  1.00
  0.1612777600D+00  0.1000000000D+01
  
 14 0
 s    3  1.00
  0.1873113700D+02  0.3349460400D-01
  0.2825394400D+01  0.2347269500D+00
  0.6401216900D+00  0.8137573301D+00
 s    1  1.00
  0.1612777600D+00  0.1000000000D+01
 
 
[MO]
 Sym=      1.1
 Ene=     -91.9792
 Spin= Alpha
 Occup=    2.000000
1 0.000015153679132
2 0.000117350319374
3 -0.000509625146283
4 -0.000028863123340
5 -0.000016909579278
6 -0.000001974899248
7 0.000471983842375
8 -0.000151036676245
9 0.000206555606596
10 -0.000000787737490
11 0.000014385304356
12 0.000173966634084
13 -0.000014954633470
14 0.000057289137239
15 -0.000017050708191
16 -0.000002919386605
17 -0.000233170125047
18 -0.000034685734959
19 0.000000602682983
20 -0.000015400584194
21 -0.000144459489127
22 0.000014464364022
23 -0.000007598375586
24 0.000009652097889
25 -0.000007786416420
26 0.000134271919432
27 0.000044640257218
28 -0.000000615606991
29 -0.000015102413341
30 0.000069568665556
31 0.000002237830196
32 0.000001843930769
33 0.000000628856898
34 -0.000022538631397
35 -0.000017234422047
36 0.000009601142147
37 0.000000552411264
38 0.000005280895163
39 -0.000048140777235
40 0.000006292933820
41 0.000003708521689
42 -0.000006513029530
43 -0.000009221161854
44 -0.000014105790829
45 0.000034961595537
46 -0.000038636158251
47 -0.000249652621529
48 0.000713086159909
49 -0.000062643110387
50 -0.000022299930081
51 -0.000038953355628
52 0.000292500029974
53 -0.000158281952530
54 0.000160522621222
55 0.99667177912730
56 0.012281579997356
57 -0.004006500007088
58 0.002782577167585
59 0.000043269822305
60 0.000106614121899
61 0.000033856640894
62 -0.000161108781547
63 -0.000111030680987
64 -0.000096995375410
65 0.000290590341917
66 0.000383786825753
67 0.000186495313652
68 0.000087484189128
69 -0.000088149293686
70 -0.000004948573343
71 -0.000310186249439
72 -0.000008394446367
73 -0.000385308094587
74 0.000033249995386
75 -0.000329754432011
76 -0.000052615224304
77 -0.000082993163024
78 0.000046515393648
79 0.000032989397754
80 0.000273222543159
81 -0.000659810184092
 Sym=      2.1
 Ene=     -20.4629
 Spin= Alpha
 Occup=    2.000000
1 -0.000049766770552
2 -0.000628988476667
3 0.002665258171777
4 0.000007224110070
5 -0.000102360813621
6 -0.000123255226710
7 -0.001576662996246
8 0.001508785765474
9 0.002666620956276
10 0.000008723382291
11 0.000051127491248
12 -0.001105232203986
13 -0.000059756975452
14 -0.000006339597889
15 -0.000000968535446
16 0.000423985122928
17 -0.000753824655529
18 0.000384625150073
19 0.000158115142412
20 0.000228707293943
21 0.005611994135561
22 -0.000041649436946
23 -0.000013017567429
24 -0.000011552142768
25 0.007152741887953
26 -0.001678861947270
27 -0.004429925514139
28 0.99586269958741
29 0.023397761296779
30 -0.015271302773053
31 -0.002100723536496
32 0.000266930319212
33 0.000990338365795
34 0.004289732327069
35 -0.000719862087657
36 -0.002245527760022
37 -0.003466316080875
38 -0.000563031072272
39 0.001972318044136
40 0.000055481499502
41 0.000081330012222
42 0.000102370281080
43 -0.001181388577789
44 -0.000484813284209
45 -0.000384561302864
46 0.000001352954280
47 -0.000031180049374
48 -0.001147367357252
49 -0.000094831321043
50 0.000046086782068
51 -0.000058463984702
52 0.000265452266772
53 0.000787337645629
54 -0.000677833639001
55 0.000001040586363
56 -0.000005001224968
57 0.000018328997904
58 0.000337413342116
59 -0.000008318030997
60 -0.000004385222128
61 -0.000012502224787
62 0.000063139590987
63 0.000025722844132
64 0.000074878031440
65 0.000100989970436
66 0.000099085059322
67 0.000055946557452
68 0.000136594002372
69 0.001105744695538
70 0.000022979720172
71 -0.000642332241173
72 0.000016250934854
73 0.000331449878109
74 0.000109305181401
75 0.000133961557094
76 -0.000017756261166
77 -0.000517843591813
78 0.000020245612837
79 0.000284222310804
80 0.000000225820389
81 -0.000114334202728
 Sym=      3.1
 Ene=     -20.4520
 Spin= Alpha
 Occup=    2.000000
1 -0.000070782296109
2 -0.000770415012928
3 0.003874728393900
4 -0.000266220048618
5 -0.000122579634902
6 -0.000085245072950
7 0.002944067514546
8 0.000036718306910
9 -0.000893179485889
10 0.000019002779458
11 0.000212410369079
12 -0.000257681113616
13 0.000092628192885
14 0.000012075169622
15 0.000020760355468
16 -0.000981027916332
17 0.000022339168324
18 -0.000279796368214
19 0.000116956602831
20 -0.000021929884639
21 0.004037071653366
22 0.000089458610844
23 0.000056718778278
24 0.000065036272698
25 0.000012870191295
26 0.004973068381455
27 0.007217606053281
28 0.003433526881742
29 -0.000406990455176
30 0.001934856116694
31 0.000123135285095
32 0.000030131678985
33 0.000007222945930
34 -0.001107783125890
35 -0.000727452099383
36 -0.000738885451528
37 0.99588384354458
38 0.023211462535868
39 -0.014704438990565
40 -0.000207002201026
41 -0.001319125874486
42 -0.001805183668833
43 0.000024474229955
44 0.002779227945220
45 0.004028478745778
46 0.000036750166088
47 0.000288903411650
48 -0.000647236825847
49 0.000059224735838
50 0.000012946486351
51 -0.000009932823504
52 -0.001061131045813
53 -0.000518128612200
54 0.000199317269479
55 -0.000000435660326
56 -0.000002582375000
57 -0.000024399227659
58 -0.000405099026705
59 0.000003573544614
60 0.000004014263696
61 0.000005250787547
62 -0.000049857405438
63 -0.000016036175524
64 -0.000038813825389
65 0.000033316017445
66 -0.000346284342534
67 -0.000067612357693
68 -0.000407384080784
69 -0.000471542902387
70 0.000184370063919
71 0.000494921210599
72 -0.000006443098320
73 0.000123847287711
74 -0.000096909976784
75 -0.000299675540733
76 0.000234395748788
77 0.000194246561257
78 0.000019653097272
79 0.000065645259155
80 0.000009134902693
81 0.000239519223009
 Sym=      4.1
 Ene=     -15.7586
 Spin= Alpha
 Occup=    2.000000
1 0.000000209125937
2 -0.000471536783830
3 0.003656696144387
4 -0.000073888085134
5 -0.000162462367847
6 0.000137235596123
7 -0.001062810621505
8 -0.001611415889528
9 0.001221134770011
10 0.99604672837309
11 0.024399855781139
12 -0.014347929314760
13 -0.000055969871172
14 -0.000096203196412
15 -0.000001640055112
16 -0.000393086420600
17 -0.000688591871472
18 0.000965845290581
19 -0.000025639918007
20 -0.000352519376442
21 0.000702308438131
22 0.000174868523612
23 0.000096729007483
24 0.000029559376654
25 -0.000700407255572
26 0.000100209795415
27 0.000155878761808
28 -0.000003456478777
29 -0.000027592959042
30 0.000291349498491
31 -0.000017984433419
32 -0.000035668384168
33 0.000017314639181
34 -0.000002859745245
35 0.000112629543253
36 -0.000025023673686
37 0.000008145536178
38 0.000146613195455
39 -0.000572096005675
40 -0.000035323347998
41 0.000010056970077
42 -0.000008792546416
43 0.000281522872311
44 0.000127983097150
45 0.000144822377653
46 -0.000019558349511
47 -0.000311807129966
48 0.000184554125179
49 0.000017611511239
50 0.000189234387747
51 -0.000112366102753
52 -0.000298008047235
53 -0.000321984744961
54 0.000323471193221
55 -0.000000941684090
56 0.000020313104558
57 0.000035846140509
58 -0.000328364607526
59 0.000018570607501
60 0.000008570139467
61 0.000015219331603
62 -0.000097497930154
63 -0.000064976879594
64 -0.000080486716284
65 -0.000250297421801
66 0.000346048471217
67 -0.000161739508877
68 -0.000255491403998
69 -0.000240299602936
70 0.000019507223880
71 0.000497907087148
72 -0.000036044982758
73 -0.000323386537339
74 0.000278467761076
75 0.002199451572515
76 0.000339671838757
77 0.001815156342369
78 0.000317247380090
79 0.001860381128506
80 0.000014824508413
81 -0.000227743254469
 Sym=      5.1
 Ene=     -11.3385
 Spin= Alpha
 Occup=    2.000000
1 0.99613583920934
2 0.027129951467053
3 -0.024731323736400
4 -0.000827072935961
5 -0.000427596146522
6 0.000725435205925
7 0.000892446811591
8 -0.001643550038056
9 -0.002224822416149
10 -0.000099581311002
11 -0.000159955815759
12 0.003829142844935
13 -0.000015829724996
14 -0.000002587427358
15 0.000064269827283
16 0.000762956678475
17 0.001531245591558
18 -0.001496714623638
19 0.019243817656328
20 -0.000153484874312
21 0.005332445056162
22 -0.000152237670665
23 -0.000031860782100
24 -0.000062392537528
25 -0.003911829145435
26 -0.001348162439204
27 -0.000588382546843
28 -0.000018418396580
29 -0.000338309717592
30 0.001120794329460
31 0.000036027274591
32 -0.000019671179586
33 -0.000027293474571
34 -0.000050569793450
35 0.000356215790356
36 0.000419757433601
37 -0.000008834028629
38 -0.000266127706958
39 0.000216841438310
40 0.000045215323809
41 0.000060021198911
42 0.000061649625828
43 0.000278803183549
44 -0.000036335007582
45 -0.000132459814759
46 0.012309954432252
47 -0.000219295051748
48 0.006015139831768
49 0.000155533629891
50 -0.000058641174386
51 0.000040954184777
52 0.001688667408575
53 -0.002474660122731
54 0.001326292920921
55 -0.000004407061196
56 -0.000008003411104
57 -0.000178599653009
58 -0.000267483486863
59 0.000018821754596
60 0.000010789170820
61 0.000009787799709
62 -0.000193145995658
63 -0.000038593816136
64 -0.000083740920125
65 0.000268234590805
66 -0.000166008561335
67 -0.000023080286546
68 0.000305285270408
69 0.002893245297685
70 -0.000098974403877
71 0.000254884341768
72 -0.000253414138863
73 -0.000050082903653
74 -0.000051117229858
75 0.000308009868535
76 -0.000004743859959
77 0.000354102344867
78 -0.000032360571886
79 0.000443938990174
80 -0.000034719925614
81 0.000483466348888
 Sym=      6.1
 Ene=     -11.3225
 Spin= Alpha
 Occup=    2.000000
1 -0.019404299483310
2 -0.000810171780213
3 0.004409396127530
4 -0.000026334652539
5 0.000027841779026
6 -0.000034995840287
7 0.003007886730923
8 0.000767557642673
9 0.000767872984650
10 -0.000024593957361
11 -0.000380017218150
12 0.000588786306866
13 -0.000193859099518
14 -0.000139353341334
15 -0.000003958281708
16 0.000938412328049
17 0.000756505585978
18 0.000127026295313
19 0.99597351797774
20 0.024848112600903
21 -0.011537631359414
22 -0.000264453428915
23 -0.000239671430940
24 -0.000276207014773
25 0.005304610291882
26 0.001800416240239
27 0.001350360433472
28 -0.000343274134787
29 0.000355717965461
30 -0.001095730824197
31 -0.000240058354067
32 0.000105113486570
33 0.000239706501717
34 0.000428946653118
35 -0.000669607232198
36 -0.001189213428974
37 -0.000252503827033
38 0.000027979042937
39 0.000439164588804
40 0.000107183053682
41 -0.000094004573388
42 -0.000182165426534
43 -0.001142387102370
44 0.000081987527736
45 0.000447244971253
46 -0.001361386098705
47 -0.000617450505343
48 0.001580573836706
49 -0.000267294745923
50 -0.000039694489720
51 -0.000114256840008
52 0.001571442346212
53 0.000117025782842
54 0.000835831444882
55 0.000001451943337
56 -0.000020078417359
57 -0.000016867502946
58 0.000821386626411
59 -0.000023840165167
60 -0.000007596244079
61 -0.000009552473909
62 0.000140292165662
63 0.000051615351943
64 0.000058724049144
65 0.000411896034193
66 0.000229218098490
67 0.000122060377453
68 -0.000113290942223
69 0.000039269883615
70 -0.000262099720113
71 -0.000087486365177
72 -0.000218499761005
73 -0.000384940718052
74 0.000183318588867
75 0.000575625414513
76 -0.000281699606794
77 0.000210327471114
78 -0.000240006752941
79 0.000003200411647
80 -0.000039817236215
81 -0.000016355108315
 Sym=      7.1
 Ene=     -11.3145
 Spin= Alpha
 Occup=    2.000000
1 -0.012486758771962
2 -0.000581838140150
3 0.003216808746568
4 -0.000028465057093
5 0.000008605246590
6 -0.000001545462521
7 -0.001550321634753
8 0.001281450925790
9 -0.001368624448616
10 -0.000021997985866
11 -0.000362487368959
12 0.000869349414138
13 0.000101233258878
14 -0.000137526609448
15 0.000065541579467
16 -0.000582147633287
17 0.000753272624697
18 -0.000229760035272
19 0.001013807453568
20 -0.000371787834951
21 0.001239468924352
22 0.000093457071249
23 0.000017413860481
24 0.000025180884930
25 -0.001064564939468
26 0.000079022609250
27 0.000341515642655
28 -0.000004807105000
29 -0.000042118786804
30 0.000411780973560
31 -0.000030829420523
32 0.000018926709236
33 -0.000020408655896
34 0.000037438405908
35 -0.000067389399200
36 0.000141573241999
37 0.000007858636107
38 0.000089073161574
39 -0.000629158707475
40 0.000004626955936
41 -0.000011196869988
42 0.000034449655286
43 0.000204627698702
44 0.000151491607791
45 0.000097931296915
46 0.99621895707126
47 0.026232851712519
48 -0.018590743805472
49 -0.000473959620424
50 -0.000599059008133
51 -0.000144435633723
52 -0.000082020390273
53 0.001344137589490
54 -0.000021448796754
55 -0.000006027451865
56 0.000026568409452
57 0.000147560677324
58 0.003113051176530
59 -0.000048538063842
60 -0.000013230311363
61 -0.000020787217035
62 0.000574083984456
63 0.000193829128592
64 0.000243132862980
65 0.001326904544439
66 0.000943737469184
67 0.000567680856770
68 -0.000176835377770
69 -0.000180368819899
70 0.000204412380802
71 0.002735257559221
72 0.000198396684419
73 0.002896121899481
74 -0.000173208381954
75 -0.000414628961843
76 0.000107517234412
77 0.000582993139748
78 -0.000193258189915
79 -0.000228490655642
80 -0.000085166149611
81 -0.000471242238482
 Sym=      8.1
 Ene=      -9.0020
 Spin= Alpha
 Occup=    2.000000
1 -0.000025039892125
2 -0.000167431889665
3 0.000974371118683
4 0.000028216533325
5 0.000038624653253
6 -0.000006534288643
7 -0.000861028191494
8 0.000414180604905
9 -0.000404790643654
10 -0.000000484835102
11 -0.000065479120767
12 -0.000221574496119
13 0.000037980611954
14 -0.000112397686546
15 0.000032350778648
16 -0.000036575684588
17 0.000522750537845
18 0.000015029115402
19 -0.000000989634132
20 0.000067539147009
21 0.000158965864291
22 -0.000044139068539
23 0.000019523554388
24 -0.000027791852492
25 0.000064699093095
26 -0.000281319076692
27 -0.000043697966919