[Molden Format]
[Molpro variables]
_NUMVAR=  823.0000000000000    
_AVOGAD= 0.6022136736000000E+24
_BOLTZ= 0.1380658000000000E-22
_CLIGHT=  29979245800.00000    
_EV2006= 0.3674930886769165E-01
_EV= 0.3674932534394180E-01
_ENULL= 0.8854187817000000E-11
_KJOULE= 0.3808798324128737E-03
_KJOULE/MOL= 0.3808798324128737E-03
_CM= 0.4556335267302901E-05
_CM-1= 0.4556335267302901E-05
_DEB2SI= 0.3335641000000000E-29
_AMU2AU=  1822.888390000000    
_KCAL= 0.1593601117815568E-02
_KCAL/MOL= 0.1593601117815568E-02
_KELVIN2006= 0.3166828861084835E-05
_KELVIN= 0.3166814820820034E-05
_JOULE= 0.4359748200000000E-17
_HERTZ2006= 0.1519829850815779E-15
_HERTZ= 0.1519829846011223E-15
_HZ2006= 0.1519829850815779E-15
_HZ= 0.1519829846011223E-15
_JPCAL=  4.184000000000000    
_PLANCK= 0.6626075540000000E-33
_TOA2006= 0.5291772490000000    
_TOA= 0.5291772090000000    
_TOANG2006= 0.5291772490000000    
_TOANG= 0.5291772090000000    
_TORAD= 0.1745329251994330E-01
_TOCM=  219474.6306700000    
_TODEBYE=  2.541580000000000    
_TOEV2006=  27.21139610000000    
_TOE= 0.4803242000000000E-09
_TOEV=  27.21138390000000    
_TOHERTZ2006=  6579683899900000.    
_TOHERTZ=  6579683920700000.    
_TOHZ2006=  6579683899900000.    
_TOHZ=  6579683920700000.    
_TOK2006=  315773.3000000000    
_TOK=  315774.7000000000    
_TOKCAL=  627.5096000000000    
_TOKELVIN2006=  315773.3000000000    
_TOKELVIN=  315774.7000000000    
_TOKJ=  2625.500000000000    
_TOKJOULE=  2625.500000000000    
_TOKG= 0.1660565586000000E-26
_ANG2006=  1.889725988578923    
_ANG=  1.889726131421507    
_ANGSTROM2006=  1.889725988578923    
_ANGSTROM=  1.889726131421507    
_RPAREF=  0.000000000000000    
_RPADISS=  0.000000000000000    
_IGNORE_UNDEF=  2.000000000000000    
_STRICTCHECK=  0.000000000000000    
_SEW_ONEEL=  0.000000000000000    
_CPPDONE=FALSE
_DKROLL_DONE=  0.000000000000000    
_FOCKDONE=TRUE
_GRADONE=FALSE
_HESSDONE=FALSE
_INTDONE=TRUE
_SCFDONE=TRUE
_MODUL_BLOCK=FALSE
_MODUL_CUDA=FALSE
_MODUL_SLATER=FALSE
_MODUL_MRCC=FALSE
_MODUL_NBO6=FALSE
_MODUL_NECI=TRUE
_MODUL_AIMS=TRUE
_MRCC_EXEC=
_FITC_AO_SAVED=FALSE
_FITC_MO_SAVED=FALSE
_SHARED_FS=TRUE
_LSTYP=SEWARD
_INTYP=INTS
_GEOMTYP=ZMAT
_GRADTYP=ALASKA
_DIRECT=FALSE
_DKHO= -1.000000000000000    
_SYNCM=  0.000000000000000    
_BASIS=$BSET
_ZORIENT=  1.000000000000000    
_NELEC=  26.00000000000000    
!SPIN=  0.000000000000000    
_OPTCONV= 0.1023477650452014E-02
_QSDSTEP=  0.000000000000000    
_QSDIRC=  0.000000000000000    
_PROGRAM=OPTG
_CPUSTEP=  0.000000000000000    
_SYSSTEP=  0.000000000000000    
_WALLSTEP=  0.000000000000000    
!DFSCF=  0.000000000000000    
!SCSGRD=  0.000000000000000    
_BASINP=  610.0000000000000    
_CPUTOT=  7.540000000000000    
_CPUSORT= 0.2999999999999936E-01
_SYSSORT=  0.000000000000000    
_WALLSORT= 0.3999999910593033E-01
_DFTEXFAC=  1.000000000000000    
_DMX= 0.2812953041336774E-04
_DMY=-0.8276195150954464    
_DMZ=-0.1802080425062913E-01
_DMX_SCF= 0.2812953041336774E-04
_DMY_SCF=-0.8276195150954464    
_DMZ_SCF=-0.1802080425062913E-01
_EHOMO=-0.4376560652245098    
_ELUMO= 0.2236070086828583    
_ENERGY= -154.0132272135037    
_ENUC=  81.87777306983514    
_GRADENERG= -154.0132269681395    
_GRADEXFAC=  9999.000000000000    
_GRADMETHOD=  1.000000000000000    
_NMRMETHOD=  0.000000000000000    
_VIRIAL= 0.5929040853113561E-04
!GRID_FREEZE= -1.000000000000000    
_ITERATIONS=  8.000000000000000    
_LASTNELEC=  26.00000000000000    
_LASTSPIN=  0.000000000000000    
_LASTSYM=  1.000000000000000    
_MPP_PROG=  0.000000000000000    
_NPROC_MPP=  1.000000000000000    
_NPROC_MPPX=  1.000000000000000    
_NPROC_SMP=  1.000000000000000    
_NUMSTEP=  0.000000000000000    
_OPTCONVMX= 0.6097852901030265E-03
_OPTCONVRMS= 0.5685986946955633E-04
_OPTGRAD= 0.3479609875389502E-03
_OPTGRADMX= 0.2068336030543735E-03
_OPTGRADRMS= 0.8201519129238648E-04
_OPTSTEP=  12.00000000000000    
_ORBITAL=  2100.200000000000    
_PI=  3.141592653589793    
_SEIG_MIN= 0.7982031353153243E-02
_SEWPROP=TRUE
_STATUS=  1.000000000000000    
_SYSTOT= 0.2100000000000000    
_VERSION=  2012001.000000000    
_WALLTOT=  7.750000000000000    
_DATE=16-Oct-15
_LASTORB=RHF
_MACHINE=Linux-3.2.0-91-generic/sce-chem-c01105(x86_64) 64 bit serial version
_OUTPUT=/home/s1267651/phd_mini_30Sept2015/ifm/molpro2/ethanol/ethanol_optg.xml
_PGROUP=C1
_TIME=11:16:16
_LIBMOL=/usr/local/molpro/molprop_2012_1_Linux_x86_64_i8/lib/
!VIBCNT=  0.000000000000000    
!RGHFCNT=  0.000000000000000    
!SURFREC=  0.000000000000000    
!POLYREC=  0.000000000000000    
!DIPREC=  0.000000000000000    
!VSCFREC=  0.000000000000000    
!VCIREC=  0.000000000000000    
!PVCIREC=  0.000000000000000    
!VMP2REC=  0.000000000000000    
!VMCSCFREC=  0.000000000000000    
!VMRCIREC=  0.000000000000000    
!VIBINFO=  0.000000000000000    
!GAREC=  0.000000000000000    
!SCFORB=  21002.00000000000    
!NEWMOL=  0.000000000000000    
!NEWSYM=  0.000000000000000    
_SLFILES=slscratch
_NGSSTO=  9.000000000000000    
_SIN=SIN
_COS=COS
_TAN=TAN
_ACOS=ACOS
_ASIN=ASIN
_ATAN=ATAN
_COSH=COSH
_SINH=SINH
_TANH=TANH
_ABS=ABS
_MOD=MOD
_ERF=ERF
_REFC=REFC
_ERFC=ERFC
_HYPOT=HYPOT
_J0=J0
_J1=J1
_JN=JN
_GAMMA=GAMMA
_LGAMMA=LGAMMA
_Y0=Y0
_Y1=Y1
_YN=YN
_EXP=EXP
_LOG=LOG
_LOG10=LOG10
_SQRT=SQRT
_INT=INT
_NINT=NINT
_MAX=MAX
_MIN=MIN
_COSMO=  0.000000000000000    
_COSMOIT=  0.000000000000000    
_COSMOES=  0.000000000000000    
_COSMOEDS=  0.000000000000000    
_COSMOEC=  0.000000000000000    
_COSMOEDCORR=  0.000000000000000    
_FEPSI=  1.000000000000000    
_SL_IsMM=  0.000000000000000    
_SL_NSYM=  1.000000000000000    
_SL_System_BitSw=  0.000000000000000    
_SL_Unique_atoms=  0.000000000000000    
_SL_GRAD=  0.000000000000000    
_SL_MAXUPD_Hess=  5.000000000000000    
_SL_N_PRINT_COD=  5.000000000000000    
_SL_PRINT_CODES=  0.000000000000000    
_SL_BasType=  0.000000000000000    
_SL_Energy_Pred=  0.000000000000000    
_SL_New_Coords=  0.000000000000000    
_SL_Total_Nuclea=  0.000000000000000    
_SL_Highest_Mltp=  0.000000000000000    
_SL_Ref_Geom=  0.000000000000000    
_SL_Symmetry_ope=  1.000000000000000    
_SL_agrad=  0.000000000000000    
_SL_GrdMax=  0.000000000000000    
_SL_GrdNorm=  0.000000000000000    
_SL_GrdRMS=  0.000000000000000    
_SL_Hss_Q=  0.000000000000000    
_SL_Hss_X=  0.000000000000000    
_SL_BMxOld=  0.000000000000000    
_SL_KtB=  0.000000000000000    
!LATTICE= -1.000000000000000    
!NEWLATTICE=  0.000000000000000    
!LATGRAD_VAR=FALSE
!SEW_LATTICE=  1.000000000000000    
!LOCAL=  0.000000000000000    
!SAVEDOM= -1.000000000000000    
!RESTDOM= -1.000000000000000    
!SAVEDOM_HF= -1.000000000000000    
!RESTDOM_HF= -1.000000000000000    
!HESSREC=  0.000000000000000    
!FREQREC=  0.000000000000000    
!NMODREC=  0.000000000000000    
!GTASKS=  0.000000000000000    
!HTASKS=  0.000000000000000    
!THRCHG= 0.1000000000000000    
!DEBUG= -1.000000000000000    
!CFIT_CPHF=  0.000000000000000    
!RDOMAUX_CPHF=  5.000000000000000    
!THRAO_CPHF= 0.9999999999999999E-11
!THRMO_CPHF= 0.9999999999999999E-11
!THROV_CPHF= 0.1000000000000000E-11
!THRSW_CPHF= 0.1000000000000000E-09
!THRPROD_CPHF= 0.9999999999999999E-11
!THRAOPR_CPHF= 0.1000000000000000E-11
!CFIT_SCFGRD=  0.000000000000000    
!RDOMAUX_SCFGRD=  7.000000000000000    
!THRAO_SCFGRD= 0.9999999999999999E-11
!THRMO_SCFGRD= 0.9999999999999999E-11
!THROV_SCFGRD= 0.1000000000000000E-11
!THRSW_SCFGRD= 0.1000000000000000E-09
!THRPROD_SCFGRD= 0.9999999999999999E-11
!THRAOPR_SCFGRD= 0.1000000000000000E-11
!LOCFIT_SCF=  0.000000000000000    
!LOCFIT_MP2= -1.000000000000000    
_RIDOM=  0.000000000000000    
!CC2_METHOD=  0.000000000000000    
_BASIS2006=FALSE
_SVDDEL= -1.000000000000000    
_SVDDELA= -1.000000000000000    
_SVDDELP= -1.000000000000000    
_SVDDELF= -1.000000000000000    
_SVDDELS= -1.000000000000000    
_SVDDEL_ABS= -1.000000000000000    
_SVDDELA_ABS= -1.000000000000000    
_SVDDELP_ABS= -1.000000000000000    
_SVDDELF_ABS= -1.000000000000000    
_SVDDELS_ABS= -1.000000000000000    
_MAXBASIS=  0.000000000000000    
!OPT_CONICAL=  0.000000000000000    
!CLEARSP_JGRID=  0.000000000000000    
_4EXT_NDISKS=  1.000000000000000    
!ZMP=  0.000000000000000    
_MAXIT_ZMP=  500.0000000000000    
_MAXDIS_ZMP=  100.0000000000000    
_ACCU_ZMP=  14.00000000000000    
_SHIFTA_ZMP= -100.0000000000000    
!EMBEDFLAG=  1.000000000000000    
!EMBED=FALSE
!EMBED_F12=FALSE
!EMBEDNUC=  0.000000000000000    
_EMBEDENERGY=  0.000000000000000    
_KSPACETIME=  0.000000000000000    
_RSPACETIME=  0.000000000000000    
!EMBED_DFC=FALSE
!NUM_VOIDS=  0.000000000000000    
_IBODY=  0.000000000000000    
_EMBE_TOTAL=  0.000000000000000    
_EMBE_HF=  0.000000000000000    
_EMBE_CORR=  0.000000000000000    
!EDFT=  0.000000000000000    
_IFASTLATGRAD=  0.000000000000000    
_SINDEX=  0.000000000000000    
BSET=6-31G
CC2=  2.859962988838930    
OC3=  2.713776734745237    
OCC3=  107.2175887201669    
HO4=  1.796162504951881    
HOC4=  113.7041763146236    
HC5=  2.049010414103441    
HCC5=  110.7218215039735    
HC6=  2.044860326775031    
HCC6=  110.1852944336318    
DIH6=  300.3595543269059    
HC7=  2.044939168930928    
HCC7=  110.1954752198788    
DIH7=  59.66657389169490    
HC8=  2.050449642234141    
HCC8=  110.7338080282146    
HC9=  2.050651981998274    
HCC9=  110.6025591907130    
DIH9=  179.6629904170755    
GX1=-0.1804115972328903E-03
GY1= -1.105169605542906    
GZ1= 0.2031630627954306E-02
GX2=-0.7264619631350633E-04
GY2= 0.4851153527946704    
GZ2=  2.379084856199561    
GX3=-0.2181529737335645E-03
GY3= 0.6026390535564169    
GZ3= -2.106990358002198    
GX4=-0.2859853574998684E-03
GY4=-0.2210736987547111    
GZ4= -3.703141053041301    
GX5=-0.3980243580614288E-04
GY5=-0.7046069488000295    
GZ5=  4.047318808951348    
GX6=  1.656031473729763    
GY6=  1.683682636575758    
GZ6=  2.426088752123083    
GX7= -1.656526987125239    
GY7=  1.683299507807619    
GZ7=  2.426938296217392    
GX8= -1.654891390486557    
GY8= -2.314357262311988    
GZ8=-0.6231526050557346E-01
GX9=  1.662191047377304    
GY9= -2.304049661140747    
GZ9=-0.6415972794729674E-01
TITLE=ethanol_optg.mld
[Atoms] Angs
C     1    6        -0.0000954697       -0.5848305673        0.0010750926
C     2    6        -0.0000384427        0.2567119884        1.2589574842
O     3    8        -0.0001154416        0.3189028524       -1.1149712770
H     4    1        -0.0001513369       -0.1169871629       -1.9596178470
H     5    1        -0.0000210625       -0.3728619386        2.1417488713
H     6    1         0.8763341133        0.8909664785        1.2838308746
H     7    1        -0.8765963277        0.8907637355        1.2842804340
H     8    1        -0.8757308072       -1.2247051167       -0.0329758156
H     9    1         0.8795936193       -1.2192505691       -0.0339518658
[GTO]
  1 0
 s    6  1.00
  0.3047524900D+04  0.1834737091D-02
  0.4573695200D+03  0.1403732293D-01
  0.1039486800D+03  0.6884262165D-01
  0.2921015500D+02  0.2321844388D+00
  0.9286663000D+01  0.4679413476D+00
  0.3163927000D+01  0.3623119882D+00
 s    3  1.00
  0.7868272300D+01 -0.1193324245D+00
  0.1881288500D+01 -0.1608541561D+00
  0.5442492600D+00  0.1143456443D+01
 s    1  1.00
  0.1687144800D+00  0.1000000000D+01
 p    3  1.00
  0.7868272300D+01  0.6899906693D-01
  0.1881288500D+01  0.3164239597D+00
  0.5442492600D+00  0.7443082892D+00
 p    1  1.00
  0.1687144800D+00  0.1000000000D+01
  
  2 0
 s    6  1.00
  0.3047524900D+04  0.1834737091D-02
  0.4573695200D+03  0.1403732293D-01
  0.1039486800D+03  0.6884262165D-01
  0.2921015500D+02  0.2321844388D+00
  0.9286663000D+01  0.4679413476D+00
  0.3163927000D+01  0.3623119882D+00
 s    3  1.00
  0.7868272300D+01 -0.1193324245D+00
  0.1881288500D+01 -0.1608541561D+00
  0.5442492600D+00  0.1143456443D+01
 s    1  1.00
  0.1687144800D+00  0.1000000000D+01
 p    3  1.00
  0.7868272300D+01  0.6899906693D-01
  0.1881288500D+01  0.3164239597D+00
  0.5442492600D+00  0.7443082892D+00
 p    1  1.00
  0.1687144800D+00  0.1000000000D+01
  
  3 0
 s    6  1.00
  0.5484671700D+04  0.1831074396D-02
  0.8252349500D+03  0.1395017197D-01
  0.1880469600D+03  0.6844507786D-01
  0.5296450000D+02  0.2327143395D+00
  0.1689757000D+02  0.4701928990D+00
  0.5799635300D+01  0.3585208493D+00
 s    3  1.00
  0.1553961600D+02 -0.1107775519D+00
  0.3599933600D+01 -0.1480262626D+00
  0.1013761800D+01  0.1130767020D+01
 s    1  1.00
  0.2700058200D+00  0.1000000000D+01
 p    3  1.00
  0.1553961600D+02  0.7087426737D-01
  0.3599933600D+01  0.3397528370D+00
  0.1013761800D+01  0.7271585736D+00
 p    1  1.00
  0.2700058200D+00  0.1000000000D+01
  
  4 0
 s    3  1.00
  0.1873113700D+02  0.3349460400D-01
  0.2825394400D+01  0.2347269500D+00
  0.6401216900D+00  0.8137573301D+00
 s    1  1.00
  0.1612777600D+00  0.1000000000D+01
  
  5 0
 s    3  1.00
  0.1873113700D+02  0.3349460400D-01
  0.2825394400D+01  0.2347269500D+00
  0.6401216900D+00  0.8137573301D+00
 s    1  1.00
  0.1612777600D+00  0.1000000000D+01
  
  6 0
 s    3  1.00
  0.1873113700D+02  0.3349460400D-01
  0.2825394400D+01  0.2347269500D+00
  0.6401216900D+00  0.8137573301D+00
 s    1  1.00
  0.1612777600D+00  0.1000000000D+01
  
  7 0
 s    3  1.00
  0.1873113700D+02  0.3349460400D-01
  0.2825394400D+01  0.2347269500D+00
  0.6401216900D+00  0.8137573301D+00
 s    1  1.00
  0.1612777600D+00  0.1000000000D+01
  
  8 0
 s    3  1.00
  0.1873113700D+02  0.3349460400D-01
  0.2825394400D+01  0.2347269500D+00
  0.6401216900D+00  0.8137573301D+00
 s    1  1.00
  0.1612777600D+00  0.1000000000D+01
  
  9 0
 s    3  1.00
  0.1873113700D+02  0.3349460400D-01
  0.2825394400D+01  0.2347269500D+00
  0.6401216900D+00  0.8137573301D+00
 s    1  1.00
  0.1612777600D+00  0.1000000000D+01
 
 
[MO]
 Sym=      1.1
 Ene=     -20.5475
 Spin= Alpha
 Occup=    2.000000
1 -0.000056819739933
2 -0.000717368526427
3 0.005407323069919
4 -0.000000738498971
5 0.000110473147767
6 -0.000311694979423
7 0.000007150432423
8 0.001527925485724
9 -0.001594530771820
10 0.000014341139459
11 -0.000016557136536
12 -0.001144065950963
13 -0.000000002877489
14 0.000026530153563
15 0.000199667996792
16 -0.000002107105312
17 0.000113586404866
18 0.000371345333825
19 0.99581401981693
20 0.022591760547115
21 -0.010247099288613
22 -0.000000489558844
23 -0.001991267959203
24 -0.000169135880938
25 -0.000001050649612
26 0.002653491229096
27 -0.000843864463347
28 0.000259634150536
29 0.001708162309268
30 -0.000012099277773
31 0.000321005806275
32 0.000037956162980
33 -0.000009612346635
34 0.000037578058819
35 -0.000010827871922
36 -0.000350154108838
37 -0.000390325793059
38 -0.000352433119075
39 -0.000396942894018
 Sym=      2.1
 Ene=     -11.2791
 Spin= Alpha
 Occup=    2.000000
1 0.99626717552955
2 0.025393410307426
3 -0.017575097171762
4 0.000002091244935
5 0.000225679037461
6 -0.000462009830213
7 -0.000015062427832
8 -0.000488762713779
9 -0.001264940141769
10 0.004451488101842
11 -0.000390788049310
12 0.004547394434634
13 0.000000110538944
14 0.000027609886618
15 0.000052562976370
16 0.000002484052351
17 -0.001485441760351
18 -0.002251436433312
19 -0.000071573060290
20 -0.000048938786688
21 0.001682197260461
22 -0.000000092011364
23 -0.000063774200305
24 0.000005372276136
25 0.000000972764458
26 -0.000075856857922
27 0.000473505357881
28 -0.000006533783942
29 0.000406475533963
30 -0.000148350524644
31 0.000169931755016
32 -0.000183793482284
33 0.000257690920943
34 -0.000183839970644
35 0.000260198467100
36 0.000077466967880
37 0.003216278273343
38 0.000080299285390
39 0.003227453839843
 Sym=      3.1
 Ene=     -11.2110
 Spin= Alpha
 Occup=    2.000000
1 -0.004616376399900
2 -0.000517029996350
3 0.004037474890691
4 0.000000082049391
5 -0.000083057802976
6 -0.000041669989351
7 -0.000002558046216
8 0.001168428509759
9 0.001992718038109
10 0.99618940406220
11 0.026077827211598
12 -0.018645536781733
13 -0.000000205962218
14 -0.000088871824255
15 -0.000028275474403
16 0.000001419554511
17 0.000377103986141
18 0.000838966753221
19 0.000000266015525
20 -0.000139934166937
21 -0.000002263823229
22 -0.000000034986967
23 -0.000017947176871
24 -0.000127117914742
25 0.000000457390789
26 0.000110398165571
27 0.000547414138766
28 0.000168186937135
29 0.000356749970465
30 -0.000000252190167
31 0.003144274249311
32 0.000057229198887
33 0.003293625763109
34 0.000057463910249
35 0.003294290775680
36 -0.000127938864064
37 0.000148304220057
38 -0.000126833457453
39 0.000150849012408
 Sym=      4.1
 Ene=      -1.3537
 Spin= Alpha
 Occup=    2.000000
1 -0.070880550393776
2 0.14179108583914
3 0.026052592374337
4 0.000052572722165
5 0.054235580860154
6 -0.069617648018097
7 -0.000051327288361
8 -0.023113862080697
9 0.012927070007150
10 -0.015877705890565
11 0.030660926200517
12 0.026866487953724
13 0.000002172761113
14 -0.006437400018995
15 -0.020856931327095
16 0.000014800052101
17 -0.000477310202683
18 -0.005803095757354
19 -0.20558087050220
20 0.44561883331757
21 0.48916560804531
22 0.000018069037653
23 -0.094320030186461
24 -0.011174601709279
25 0.000020239835093
26 -0.064773588806676
27 0.013158213564060
28 0.13261963452582
29 -0.006502138985546
30 0.004282280403822
31 -0.004542887131700
32 0.005937325257655
33 0.001493498676746
34 0.005934265063749
35 0.001495870661603
36 0.025094473539916
37 -0.000151974465054
38 0.025169914158340
39 -0.000038555562095
 Sym=      5.1
 Ene=      -1.0207
 Spin= Alpha
 Occup=    2.000000
1 -0.12632787388362
2 0.24979380371015
3 0.22979028216879
4 0.000142283232204
5 0.018878942993854
6 0.097013828561934
7 0.000143283586905
8 -0.001878801425106
9 0.012938196750303
10 -0.15413235405911
11 0.29452512868917
12 0.26607704457486
13 0.000023154686737
14 -0.036296121833403
15 -0.044021530218001
16 -0.000016111212338
17 -0.009010346499949
18 0.004967473952333
19 0.051801755985411
20 -0.11159153559561
21 -0.16444968321562
22 0.000040255927242
23 -0.005005194168215
24 0.11601438093882
25 0.000008779449906
26 0.006278488435767
27 0.037236107358606
28 -0.084997222008699
29 -0.017932979244027
30 0.092994058541308
31 0.011260324092556
32 0.089660863763784
33 0.013032897581727
34 0.089627550841983
35 0.013009464185296
36 0.077689790003413
37 0.009173655258510
38 0.077698975687981
39 0.009083584015306
 Sym=      6.1
 Ene=      -0.8444
 Spin= Alpha
 Occup=    2.000000
1 -0.12803399142971
2 0.25159099397673
3 0.31198299400050
4 0.000263898279621
5 -0.10656178931870
6 -0.075090090398029
7 0.000135942654831
8 -0.040225692015503
9 -0.007051913916760
10 0.12024402112850
11 -0.22321611308226
12 -0.29290009680405
13 0.000059101779395
14 -0.074889047652966
15 -0.097629526252205
16 0.000017043404037
17 -0.011971545223366
18 -0.014487662621405
19 0.036393590399704
20 -0.082139639047217
21 -0.12453768193323
22 0.000118782071786
23 -0.078716950965909
24 0.15189454152158
25 0.000069480352399
26 -0.037176596998298
27 0.072228877143009
28 -0.086888744996079
29 -0.028077435049534
30 -0.10826227246388
31 -0.041025370085575
32 -0.11168603527924
33 -0.038594724899860
34 -0.11172969262490
35 -0.038621800163104
36 0.13038582246535
37 0.042270749821679
38 0.13025427258834
39 0.042190782414716
 Sym=      7.1
 Ene=      -0.6939
 Spin= Alpha
 Occup=    2.000000
1 0.011613647872758
2 -0.016753844871838
3 -0.041750709965293
4 0.000837956419285
5 0.26733117885822
6 -0.083546381215100
7 0.000353701282845
8 0.10442295038116
9 0.006602039174608
10 0.010511179849720
11 -0.010883585423101
12 -0.056891451462448
13 0.000333320245228
14 0.084040202638070
15 -0.10706506803104
16 0.000100344774095
17 0.041890418961334
18 -0.029899195458306
19 -0.031770756131654
20 0.070403271655121
21 0.13463537559282
22 0.000447650131845
23 0.10527141510799
24 0.40580632339021
25 0.000248643771851
26 0.059508746740268
27 0.23199864274795
28 -0.23020272247661
29 -0.098811392425821
30 -0.084840953208207
31 -0.055257300507843
32 0.019348074389025
33 0.016333328991518
34 0.019002777818895
35 0.016117418635801
36 -0.098453216569315
37 -0.055702452255234
38 -0.097068628394968
39 -0.054840845255775
 Sym=      8.1
 Ene=      -0.6481
 Spin= Alpha
 Occup=    2.000000
1 0.000083402083865
2 -0.000248744890681
3 0.000061301859638
4 0.35691966967123
5 -0.000159306093561
6 0.000075778746531
7 0.15992748635729
8 0.000059000249263
9 -0.000065218248689
10 -0.000026954496588
11 0.000030412893614
12 0.000001688277590
13 0.21098157423570
14 -0.000064863221359
15 0.000270680382749
16 0.087623408395519
17 -0.000077441916224
18 0.000188574733952
19 0.000145985544964
20 -0.000300653153849
21 -0.000760401054225
22 0.24883463061688
23 -0.000471830552858
24 -0.001199712536584
25 0.15886434366444
26 -0.000268734222854
27 -0.000821791666097
28 0.000700636853877
29 0.000290872191947
30 0.000177488389545
31 0.000086691547772
32 0.10180058230322
33 0.066448542973804
34 -0.10179324408341
35 -0.066460576755061
36 -0.17006690847152
37 -0.11629146043687
38 0.17070830898527
39 0.11671007671023
 Sym=      9.1
 Ene=      -0.5587
 Spin= Alpha
 Occup=    2.000000
1 -0.008206012968176
2 0.009539424893291
3 0.082201263914926
4 0.000077090173647
5 0.052739639753857
6 0.30211002541217
7 0.000155682894282
8 0.074332004006615
9 0.15933140131252
10 0.006394320150145
11 -0.005955844624309
12 -0.087759028258133
13 0.000303705994138
14 -0.30208799348010
15 -0.10364054380287
16 0.000144243351244
17 -0.12286332768344
18 -0.040870351704160
19 -0.038911942679829
20 0.097938178053833
21 0.13429865749217
22 -0.000121086400466
23 0.35813750026286
24 -0.061885502987128
25 -0.000113675958274
26 0.25960138142006
27 -0.054273135834632
28 -0.025609074987537
29 -0.005192134801051
30 0.057247764847328
31 0.060662848708945
32 -0.12221792285573
33 -0.088470565556198
34 -0.12253715539851
35 -0.088723471276445
36 -0.016537696839883
37 -0.009365063665046
38 -0.016435299021394
39 -0.009457560378327
 Sym=     10.1
 Ene=      -0.5320
 Spin= Alpha
 Occup=    2.000000
1 -0.018707080053172
2 0.032601641193802
3 0.099952509138995
4 -0.000601850373371
5 -0.002096640680168
6 0.18699881100101
7 -0.000370656766662
8 0.024961580674704
9 0.074367271828224
10 -0.005769993386167
11 0.015121300029477
12 0.000198699081691
13 0.001583610611108
14 0.21488502160013
15 -0.34301372698791
16 0.000948045006309
17 0.12166178671306
18 -0.15655211953672
19 0.016121254930947
20 -0.026222229566094
21 -0.10699985749656
22 -0.001358760023354
23 0.087295788694684
24 -0.20587309423686
25 -0.001002787527342
26 0.074295324922241
27 -0.15363258853685
28 0.097908492532560
29 0.061977644288190
30 -0.28243362821819
31 -0.24278575335595
32 0.090168440584823
33 0.065476989154592
34 0.088286351624711
35 0.064120942807864
36 0.021667990822948
37 0.015573881871101
38 0.020918861852402
39 0.014915043090128
 Sym=     11.1
 Ene=      -0.5224
 Spin= Alpha
 Occup=    2.000000
1 -0.000094611928565
2 0.000164508346597
3 0.000525810956651
4 0.12483615862403
5 0.000482776826903
6 0.001156990238246
7 0.093851698407322
8 0.000432289684721
9 0.000478240750037
10 -0.000034917837993
11 0.000084210349577
12 -0.000026660851307
13 -0.37618138690511
14 0.000478584654345
15 -0.001708698248466
16 -0.23144597557044
17 0.000277155138125
18 -0.000698964515711
19 0.000133478430531
20 -0.000242746386303
21 -0.000821025942073
22 0.29805098328378
23 0.000071871443819
24 -0.001189950610273
25 0.22065499531381
26 0.000097989218688
27 -0.000923259526427
28 0.000651418570050
29 0.000393068068614
30 -0.001203292232206
31 -0.001109519525750
32 -0.21248383695446
33 -0.15639881493987
34 0.21294229339826
35 0.15670854469573
36 -0.069069831764143
37 -0.056910016331485
38 0.069124484844512
39 0.056967541200839
 Sym=     12.1
 Ene=      -0.4782
 Spin= Alpha
 Occup=    2.000000
1 0.015987530800497
2 -0.049612834572156
3 0.027426047695046
4 -0.000374951154437
5 -0.30714932434553
6 -0.10739359509067
7 0.000138485852219
8 -0.11073751914977
9 -0.037498458571421
10 0.021316046444221
11 -0.038660530401152
12 -0.12509418396164
13 0.000012447863652
14 0.19784167866929
15 0.18955516023570
16 -0.000169329036112
17 0.13618798549498
18 0.086497236695278
19 -0.043873142224157
20 0.10688557323282
21 0.17848855688861
22 0.002457551336558
23 0.40115962850156
24 0.055791406135287
25 0.001958462669181
26 0.32559832573101
27 0.028854504728668
28 -0.12047163492376
29 -0.073638849619772
30 0.005627241740213
31 0.034524529524637
32 0.069418782380430
33 0.077686104027131
34 0.069386337139587
35 0.077405517778438
36 0.12022847547938
37 0.12274123783558
38 0.11855139449404
39 0.12111054776655
 Sym=     13.1
 Ene=      -0.4377
 Spin= Alpha
 Occup=    2.000000
1 -0.000033836758065
2 0.000235137433704
3 -0.000653776865302
4 -0.25668606595656
5 0.001063457519458
6 0.000557102753762
7 -0.091712175018616
8 0.000596046249401
9 0.000235080980349
10 -0.000130408763778
11 0.000248774306197
12 0.000769926632700
13 0.10336509741035
14 -0.000789299785831
15 -0.000945773014130
16 0.031629342163918
17 -0.000606361103381
18 -0.000497084878953
19 0.000088259232347
20 -0.000239382783332
21 -0.000219577922925
22 0.51365871690335
23 -0.001679468157757
24 0.000172138159600
25 0.43192210161452
26 -0.001453797332802
27 0.000225792755183
28 0.000324650387007
29 0.000202321669204
30 -0.000066870786196
31 -0.000189487509384
32 0.072267622594823
33 0.097455102577564
34 -0.072776476781769
35 -0.098129558920281
36 0.18329396051058
37 0.19626790455095
38 -0.18468706355612
39 -0.19743576992912
 Sym=     14.1
 Ene=       0.2236
 Spin= Alpha
 Occup=    0.000000
1 0.046778937972769
2 0.000208765842307
3 -1.08335924550771
4 -0.000599688181244
5 0.17615968079998
6 -0.074418776486064
7 -0.002652763905463
8 0.45956036926173
9 -0.24322944851162
10 0.032475118727363
11 -0.029493219445318
12 -0.45252615328461
13 -0.000181597776633
14 -0.005320283687919
15 -0.061015021473727
16 -0.000554368310674
17 -0.12386782027942
18 -0.30300819225111
19 0.067886952074859
20 -0.098543446200457
21 -0.87029120409000
22 0.000056860890776
23 0.11675589609356
24 0.12439580643289
25 0.000253436559713
26 0.23333105428588
27 0.32051406269057
28 0.060344041121103
29 1.18557598224841
30 0.041617633216138
31 0.53733573508064
32 -0.023269126994702
33 0.18840396597994
34 -0.023453732785991
35 0.18661567386986
36 -0.001414717610776
37 0.69461510007283
38 -0.001040844908524
39 0.69657978801897
 Sym=     15.1
 Ene=       0.2611
 Spin= Alpha
 Occup=    0.000000
1 0.064854216508014
2 -0.083182886493974
3 -0.99247568563865
4 -0.000351184781054
5 0.046658976286308
6 0.093306694876672
7 -0.002431727631768
8 0.41736229620658
9 0.43395761150338
10 0.097823530558777
11 -0.054597594600010
12 -1.93159264994131
13 -0.000186554221318
14 -0.045413521909727
15 -0.082466057351913
16 -0.000204774475353
17 -0.37330422168437
18 -0.19747908135944
19 -0.041464005639478
20 0.038422968077130
21 0.63645732990442
22 -0.000075627346251
23 -0.15782125552148
24 -0.047545223457890
25 0.000049544147230
26 -0.32916494851256
27 -0.12828997260891
28 -0.025684799753143
29 -0.67001880558898
30 -0.047607898292554
31 0.63383628099601
32 0.025845181997472
33 0.95345563770198
34 0.025823834142327
35 0.95226682922591
36 -0.002617104732192
37 0.71086627449199
38 -0.002456822234709
39 0.71324527523331
 Sym=     16.1
 Ene=       0.3061
 Spin= Alpha
 Occup=    0.000000
1 -0.11187341849902
2 0.065906280990547
3 2.19578255089990
4 -0.006964106694033
5 -0.10254775064995
6 0.006696490743004
7 -0.024158560419328
8 -0.40692590066077
9 0.34037670679319
10 0.10930566316702
11 -0.039605327833081
12 -2.16819170152224
13 -0.004354625317825
14 -0.012953047354173
15 -0.057603176047815
16 -0.013663478643527
17 0.27564526908882
18 -0.042725806589730
19 0.027485629450055
20 -0.044008133658146
21 -0.33767750229508
22 0.000934921100549
23 0.044286981391961
24 0.020614760492379
25 0.004105565735253
26 0.14488691863935
27 0.064248206239560
28 0.043848536449529
29 0.44403271762090
30 0.009216966719977
31 1.01000056674678
32 -0.006284687983526
33 0.71130644142304
34 -0.008421208250813
35 0.67033641857821
36 -0.016549926756527
37 -1.19831476342838
38 -0.014936621364414
39 -1.13475641384675
 Sym=     17.1
 Ene=       0.3069
 Spin= Alpha
 Occup=    0.000000
1 -0.002114751871329
2 0.000930352412765
3 0.043724651169949
4 0.29820879976858
5 -0.001707331106483
6 0.000525884375083
7 1.04739485244104
8 -0.010424928182407
9 0.010237971026790
10 0.002478673541896
11 -0.000804544106335
12 -0.050479239872764
13 0.20984952187372
14 0.001363103717793
15 -0.003215207328880
16 0.70231624379011
17 0.014329696638817
18 -0.009271834572980
19 0.000466903669380
20 -0.000853512743782
21 -0.004843210670477
22 -0.026959983390674
23 0.000221286499815
24 0.000897629530773
25 -0.15776298972445
26 0.001353402466476
27 0.002892236671285
28 0.001342679391872
29 0.010406188748820
30 0.000445112385747
31 0.037588440909394
32 -0.047473392353606
33 -0.97910167577843
34 0.047001983164305
35 0.99973591676641
36 0.037548925774686
37 1.27384188800313
38 -0.038561020054945
39 -1.32446137056105
 Sym=     18.1
 Ene=       0.3272
 Spin= Alpha
 Occup=    0.000000
1 0.012193333608361
2 0.009940857283908
3 -0.29173518574149
4 -0.000969851704529
5 0.037968434098785
6 -0.021047859054210
7 -0.000721582463467
8 -0.37148588075830
9 0.10966570572759
10 -0.008467032417860
11 0.007266871649173
12 0.17096617561204
13 -0.002987847645263
14 0.25701723859097
15 -0.20868175960717
16 -0.013736837691397
17 1.21393275692492
18 -1.01047230527180
19 -0.008544770771393
20 -0.015839253558852
21 0.34692927943153
22 -0.000332760666014
23 -0.028893789084188
24 -0.088763695870588
25 -0.000036839880405
26 -0.11599218749420
27 -0.10527024149794
28 0.018625110355417
29 -0.37432894811042
30 0.047795193628541
31 1.91963944182573
32 -0.018074502190611
33 -0.93824727267731
34 -0.019235152388208
35 -0.96824218681049
36 0.001965443928715
37 0.035555674972797
38 0.002526122489485
39 0.043687543828546
 Sym=     19.1
 Ene=       0.3483
 Spin= Alpha
 Occup=    0.000000
1 0.000119207595517
2 0.000363873937855
3 -0.005022754871868
4 -0.24294062540046
5 0.000240366573060
6 -0.000697516041107
7 -1.29179917835935
8 -0.003358838631836
9 -0.002366377470108
10 -0.000234775571103
11 -0.000008383546324
12 0.006264526367978
13 0.23147667776206
14 0.001529388765605