[Molden Format]
[Molpro variables]
_NUMVAR=  833.0000000000000    
_AVOGAD= 0.6022136736000000E+24
_BOLTZ= 0.1380658000000000E-22
_CLIGHT=  29979245800.00000    
_EV2006= 0.3674930886769165E-01
_EV= 0.3674932534394180E-01
_ENULL= 0.8854187817000000E-11
_KJOULE= 0.3808798324128737E-03
_KJOULE/MOL= 0.3808798324128737E-03
_CM= 0.4556335267302901E-05
_CM-1= 0.4556335267302901E-05
_DEB2SI= 0.3335641000000000E-29
_AMU2AU=  1822.888390000000    
_KCAL= 0.1593601117815568E-02
_KCAL/MOL= 0.1593601117815568E-02
_KELVIN2006= 0.3166828861084835E-05
_KELVIN= 0.3166814820820034E-05
_JOULE= 0.4359748200000000E-17
_HERTZ2006= 0.1519829850815779E-15
_HERTZ= 0.1519829846011223E-15
_HZ2006= 0.1519829850815779E-15
_HZ= 0.1519829846011223E-15
_JPCAL=  4.184000000000000    
_PLANCK= 0.6626075540000000E-33
_TOA2006= 0.5291772490000000    
_TOA= 0.5291772090000000    
_TOANG2006= 0.5291772490000000    
_TOANG= 0.5291772090000000    
_TORAD= 0.1745329251994330E-01
_TOCM=  219474.6306700000    
_TODEBYE=  2.541580000000000    
_TOEV2006=  27.21139610000000    
_TOE= 0.4803242000000000E-09
_TOEV=  27.21138390000000    
_TOHERTZ2006=  6579683899900000.    
_TOHERTZ=  6579683920700000.    
_TOHZ2006=  6579683899900000.    
_TOHZ=  6579683920700000.    
_TOK2006=  315773.3000000000    
_TOK=  315774.7000000000    
_TOKCAL=  627.5096000000000    
_TOKELVIN2006=  315773.3000000000    
_TOKELVIN=  315774.7000000000    
_TOKJ=  2625.500000000000    
_TOKJOULE=  2625.500000000000    
_TOKG= 0.1660565586000000E-26
_ANG2006=  1.889725988578923    
_ANG=  1.889726131421507    
_ANGSTROM2006=  1.889725988578923    
_ANGSTROM=  1.889726131421507    
_RPAREF=  0.000000000000000    
_RPADISS=  0.000000000000000    
_IGNORE_UNDEF=  2.000000000000000    
_STRICTCHECK=  0.000000000000000    
_SEW_ONEEL=  0.000000000000000    
_CPPDONE=FALSE
_DKROLL_DONE=  0.000000000000000    
_FOCKDONE=TRUE
_GRADONE=FALSE
_HESSDONE=FALSE
_INTDONE=TRUE
_SCFDONE=TRUE
_MODUL_BLOCK=FALSE
_MODUL_CUDA=FALSE
_MODUL_SLATER=FALSE
_MODUL_MRCC=FALSE
_MODUL_NBO6=FALSE
_MODUL_NECI=TRUE
_MODUL_AIMS=TRUE
_MRCC_EXEC=
_FITC_AO_SAVED=FALSE
_FITC_MO_SAVED=FALSE
_SHARED_FS=TRUE
_LSTYP=SEWARD
_INTYP=INTS
_GEOMTYP=ZMAT
_GRADTYP=ALASKA
_DIRECT=FALSE
_DKHO= -1.000000000000000    
_SYNCM=  0.000000000000000    
_BASIS=$BSET
_ZORIENT=  1.000000000000000    
_NELEC=  77.00000000000000    
!SPIN=  1.000000000000000    
_QSDSTEP=  0.000000000000000    
_QSDIRC=  0.000000000000000    
_PROGRAM=HF-SCF
_CPUSTEP=  4.730000000000000    
_SYSSTEP= 0.1700000000000000    
_WALLSTEP=  4.910000000000000    
!DFSCF=  0.000000000000000    
!SCSGRD=  0.000000000000000    
_BASINP=  610.0000000000000    
_CPUTOT=  7.560000000000000    
_CPUSORT= 0.4800000000000000    
_SYSSORT= 0.1900000000000000    
_WALLSORT= 0.6699999980628490    
_DFTEXFAC=  1.000000000000000    
_DMX= -3.142970001204768    
_DMY= -4.418230953128244    
_DMZ=-0.7536206832103858    
_DMX_SCF= -3.142970001204768    
_DMY_SCF= -4.418230953128244    
_DMZ_SCF=-0.7536206832103858    
_EHOMO=-0.5088576093109369    
_ELUMO= 0.7034498539177025E-01
_ENERGY= -547.4324840252996    
_ENUC=  531.5493403748296    
_GRADEXFAC=  9999.000000000000    
_GRADMETHOD=  2.000000000000000    
_NMRMETHOD=  0.000000000000000    
!GRID_FREEZE= -1.000000000000000    
_ITERATIONS=  32.00000000000000    
_LASTNELEC=  77.00000000000000    
_LASTSPIN=  1.000000000000000    
_LASTSYM=  1.000000000000000    
_MPP_PROG=  0.000000000000000    
_NPROC_MPP=  1.000000000000000    
_NPROC_MPPX=  1.000000000000000    
_NPROC_SMP=  1.000000000000000    
_NUMSTEP=  0.000000000000000    
_ORBITAL=  2100.200000000000    
_PI=  3.141592653589793    
_SEIG_MIN= 0.3055814073335620E-02
_SEWPROP=TRUE
_STATUS=  1.000000000000000    
_SYSTOT= 0.4100000000000000    
_VERSION=  2012001.000000000    
_WALLTOT=  7.980000000000000    
_DATE=23-Sep-15
_LASTORB=RHF
_MACHINE=Linux-3.2.0-90-generic/sce-chem-c01105(x86_64) 64 bit serial version
_OUTPUT=/home/s1267651/phd_mini_19Sept2015/protein/molpro2/glutamate_6-31g_scf.xml
_PGROUP=C1
_TIME=17:54:41
_LIBMOL=/usr/local/molpro/molprop_2012_1_Linux_x86_64_i8/lib/
!VIBCNT=  0.000000000000000    
!RGHFCNT=  0.000000000000000    
!SURFREC=  0.000000000000000    
!POLYREC=  0.000000000000000    
!DIPREC=  0.000000000000000    
!VSCFREC=  0.000000000000000    
!VCIREC=  0.000000000000000    
!PVCIREC=  0.000000000000000    
!VMP2REC=  0.000000000000000    
!VMCSCFREC=  0.000000000000000    
!VMRCIREC=  0.000000000000000    
!VIBINFO=  0.000000000000000    
!GAREC=  0.000000000000000    
!SCFORB=  21002.00000000000    
!NEWMOL= -1.000000000000000    
!NEWSYM= -1.000000000000000    
_SLFILES=slscratch
_NGSSTO=  9.000000000000000    
_SIN=SIN
_COS=COS
_TAN=TAN
_ACOS=ACOS
_ASIN=ASIN
_ATAN=ATAN
_COSH=COSH
_SINH=SINH
_TANH=TANH
_ABS=ABS
_MOD=MOD
_ERF=ERF
_REFC=REFC
_ERFC=ERFC
_HYPOT=HYPOT
_J0=J0
_J1=J1
_JN=JN
_GAMMA=GAMMA
_LGAMMA=LGAMMA
_Y0=Y0
_Y1=Y1
_YN=YN
_EXP=EXP
_LOG=LOG
_LOG10=LOG10
_SQRT=SQRT
_INT=INT
_NINT=NINT
_MAX=MAX
_MIN=MIN
_COSMO=  0.000000000000000    
_COSMOIT=  0.000000000000000    
_COSMOES=  0.000000000000000    
_COSMOEDS=  0.000000000000000    
_COSMOEC=  0.000000000000000    
_COSMOEDCORR=  0.000000000000000    
_FEPSI=  1.000000000000000    
_SL_IsMM=  0.000000000000000    
_SL_NSYM=  1.000000000000000    
_SL_System_BitSw=  0.000000000000000    
_SL_Unique_atoms=  0.000000000000000    
_SL_GRAD=  0.000000000000000    
_SL_MAXUPD_Hess=  5.000000000000000    
_SL_N_PRINT_COD=  5.000000000000000    
_SL_PRINT_CODES=  0.000000000000000    
_SL_BasType=  0.000000000000000    
_SL_Energy_Pred=  0.000000000000000    
_SL_New_Coords=  0.000000000000000    
_SL_Total_Nuclea=  0.000000000000000    
_SL_Highest_Mltp=  0.000000000000000    
_SL_Ref_Geom=  0.000000000000000    
_SL_Symmetry_ope=  1.000000000000000    
_SL_agrad=  0.000000000000000    
_SL_GrdMax=  0.000000000000000    
_SL_GrdNorm=  0.000000000000000    
_SL_GrdRMS=  0.000000000000000    
_SL_Hss_Q=  0.000000000000000    
_SL_Hss_X=  0.000000000000000    
_SL_BMxOld=  0.000000000000000    
_SL_KtB=  0.000000000000000    
!LATTICE= -1.000000000000000    
!NEWLATTICE=  0.000000000000000    
!LATGRAD_VAR=FALSE
!SEW_LATTICE=  1.000000000000000    
!LOCAL=  0.000000000000000    
!SAVEDOM= -1.000000000000000    
!RESTDOM= -1.000000000000000    
!SAVEDOM_HF= -1.000000000000000    
!RESTDOM_HF= -1.000000000000000    
!HESSREC=  0.000000000000000    
!FREQREC=  0.000000000000000    
!NMODREC=  0.000000000000000    
!GTASKS=  0.000000000000000    
!HTASKS=  0.000000000000000    
!THRCHG= 0.1000000000000000    
!DEBUG= -1.000000000000000    
!CFIT_CPHF=  0.000000000000000    
!RDOMAUX_CPHF=  3.000000000000000    
!THRAO_CPHF= 0.1000000000000000E-09
!THRMO_CPHF= 0.1000000000000000E-08
!THROV_CPHF= 0.1000000000000000E-11
!THRSW_CPHF= 0.1000000000000000E-09
!THRPROD_CPHF= 0.1000000000000000E-08
!THRAOPR_CPHF= 0.1000000000000000E-11
!CFIT_SCFGRD=  0.000000000000000    
!RDOMAUX_SCFGRD=  5.000000000000000    
!THRAO_SCFGRD= 0.1000000000000000E-09
!THRMO_SCFGRD= 0.1000000000000000E-08
!THROV_SCFGRD= 0.1000000000000000E-11
!THRSW_SCFGRD= 0.1000000000000000E-09
!THRPROD_SCFGRD= 0.1000000000000000E-08
!THRAOPR_SCFGRD= 0.1000000000000000E-11
!LOCFIT_SCF=  0.000000000000000    
!LOCFIT_MP2= -1.000000000000000    
_RIDOM=  0.000000000000000    
!CC2_METHOD=  0.000000000000000    
_BASIS2006=FALSE
_SVDDEL= -1.000000000000000    
_SVDDELA= -1.000000000000000    
_SVDDELP= -1.000000000000000    
_SVDDELF= -1.000000000000000    
_SVDDELS= -1.000000000000000    
_SVDDEL_ABS= -1.000000000000000    
_SVDDELA_ABS= -1.000000000000000    
_SVDDELP_ABS= -1.000000000000000    
_SVDDELF_ABS= -1.000000000000000    
_SVDDELS_ABS= -1.000000000000000    
_MAXBASIS=  0.000000000000000    
!OPT_CONICAL=  0.000000000000000    
!CLEARSP_JGRID=  0.000000000000000    
_4EXT_NDISKS=  1.000000000000000    
!ZMP=  0.000000000000000    
_MAXIT_ZMP=  500.0000000000000    
_MAXDIS_ZMP=  100.0000000000000    
_ACCU_ZMP=  14.00000000000000    
_SHIFTA_ZMP= -100.0000000000000    
!EMBEDFLAG=  1.000000000000000    
!EMBED=FALSE
!EMBED_F12=FALSE
!EMBEDNUC=  0.000000000000000    
_EMBEDENERGY=  0.000000000000000    
_KSPACETIME=  0.000000000000000    
_RSPACETIME=  0.000000000000000    
!EMBED_DFC=FALSE
!NUM_VOIDS=  0.000000000000000    
_IBODY=  0.000000000000000    
_EMBE_TOTAL=  0.000000000000000    
_EMBE_HF=  0.000000000000000    
_EMBE_CORR=  0.000000000000000    
!EDFT=  0.000000000000000    
_IFASTLATGRAD=  0.000000000000000    
_SINDEX=  0.000000000000000    
TITLE=GLUTAMATE
BSET=6-31G
GX1= -1.198000000000000    
GY1=-0.2150000000000000    
GZ1= 0.7360000000000000    
GX2= 0.1080000000000000    
GY2= 0.5590000000000001    
GZ2= 0.5600000000000004    
GX3=  1.275000000000000    
GY3=-0.4230000000000000    
GZ3= 0.4760000000000000    
GX4=  2.565000000000000    
GY4= 0.3420000000000000    
GZ4= 0.3010000000000000    
GX5=  3.623000000000000    
GY5=-0.2590000000000000    
GZ5= 0.2120000000000000    
GX6=  2.549000000000000    
GY6=  1.611000000000000    
GZ6= 0.2470000000000001    
GX7= -1.398000000000001    
GY7= -1.128000000000000    
GZ7=-0.4310000000000000    
GX8= -2.351000000000000    
GY8= 0.7560000000000003    
GZ8= 0.8200000000000000    
GX9= -3.054000000000001    
GY9= 0.7840000000000000    
GZ9=  1.816000000000000    
GX10= -2.590000000000000    
GY10=  1.543000000000000    
GZ10=-0.1480000000000000    
GX11= -1.150000000000000    
GY11=-0.8020000000000003    
GZ11=  1.652000000000000    
GX12= 0.2530000000000000    
GY12=  1.223000000000000    
GZ12=  1.409000000000000    
GX13= 0.6100000000000000E-01
GY13=  1.146000000000000    
GZ13=-0.3550000000000000    
GX14= -2.282000000000000    
GY14= -1.652000000000000    
GZ14=-0.3110000000000000    
GX15=-0.6070000000000000    
GY15= -1.793000000000000    
GZ15=-0.4880000000000000    
GX16= -1.442000000000000    
GY16=-0.5700000000000002    
GZ16= -1.301000000000000    
GX17=  1.130000000000000    
GY17= -1.088000000000000    
GZ17=-0.3740000000000000    
GX18=  1.322000000000000    
GY18= -1.010000000000000    
GZ18=  1.391000000000000    
STR=../input/GLUTAMATE_6-31G_scf.mld
[Atoms] Angs
C     1    6        -1.1980000000       -0.2150000000        0.7360000000
C     2    6         0.1080000000        0.5590000000        0.5600000000
C     3    6         1.2750000000       -0.4230000000        0.4760000000
C     4    6         2.5650000000        0.3420000000        0.3010000000
O     5    8         3.6230000000       -0.2590000000        0.2120000000
O     6    8         2.5490000000        1.6110000000        0.2470000000
N     7    7        -1.3980000000       -1.1280000000       -0.4310000000
C     8    6        -2.3510000000        0.7560000000        0.8200000000
O     9    8        -3.0540000000        0.7840000000        1.8160000000
O    10    8        -2.5900000000        1.5430000000       -0.1480000000
H    11    1        -1.1500000000       -0.8020000000        1.6520000000
H    12    1         0.2530000000        1.2230000000        1.4090000000
H    13    1         0.0610000000        1.1460000000       -0.3550000000
H    14    1        -2.2820000000       -1.6520000000       -0.3110000000
H    15    1        -0.6070000000       -1.7930000000       -0.4880000000
H    16    1        -1.4420000000       -0.5700000000       -1.3010000000
H    17    1         1.1300000000       -1.0880000000       -0.3740000000
H    18    1         1.3220000000       -1.0100000000        1.3910000000
[GTO]
  1 0
 s    6  1.00
  0.3047524900D+04  0.1834737091D-02
  0.4573695200D+03  0.1403732293D-01
  0.1039486800D+03  0.6884262165D-01
  0.2921015500D+02  0.2321844388D+00
  0.9286663000D+01  0.4679413476D+00
  0.3163927000D+01  0.3623119882D+00
 s    3  1.00
  0.7868272300D+01 -0.1193324245D+00
  0.1881288500D+01 -0.1608541561D+00
  0.5442492600D+00  0.1143456443D+01
 s    1  1.00
  0.1687144800D+00  0.1000000000D+01
 p    3  1.00
  0.7868272300D+01  0.6899906693D-01
  0.1881288500D+01  0.3164239597D+00
  0.5442492600D+00  0.7443082892D+00
 p    1  1.00
  0.1687144800D+00  0.1000000000D+01
  
  2 0
 s    6  1.00
  0.3047524900D+04  0.1834737091D-02
  0.4573695200D+03  0.1403732293D-01
  0.1039486800D+03  0.6884262165D-01
  0.2921015500D+02  0.2321844388D+00
  0.9286663000D+01  0.4679413476D+00
  0.3163927000D+01  0.3623119882D+00
 s    3  1.00
  0.7868272300D+01 -0.1193324245D+00
  0.1881288500D+01 -0.1608541561D+00
  0.5442492600D+00  0.1143456443D+01
 s    1  1.00
  0.1687144800D+00  0.1000000000D+01
 p    3  1.00
  0.7868272300D+01  0.6899906693D-01
  0.1881288500D+01  0.3164239597D+00
  0.5442492600D+00  0.7443082892D+00
 p    1  1.00
  0.1687144800D+00  0.1000000000D+01
  
  3 0
 s    6  1.00
  0.3047524900D+04  0.1834737091D-02
  0.4573695200D+03  0.1403732293D-01
  0.1039486800D+03  0.6884262165D-01
  0.2921015500D+02  0.2321844388D+00
  0.9286663000D+01  0.4679413476D+00
  0.3163927000D+01  0.3623119882D+00
 s    3  1.00
  0.7868272300D+01 -0.1193324245D+00
  0.1881288500D+01 -0.1608541561D+00
  0.5442492600D+00  0.1143456443D+01
 s    1  1.00
  0.1687144800D+00  0.1000000000D+01
 p    3  1.00
  0.7868272300D+01  0.6899906693D-01
  0.1881288500D+01  0.3164239597D+00
  0.5442492600D+00  0.7443082892D+00
 p    1  1.00
  0.1687144800D+00  0.1000000000D+01
  
  4 0
 s    6  1.00
  0.3047524900D+04  0.1834737091D-02
  0.4573695200D+03  0.1403732293D-01
  0.1039486800D+03  0.6884262165D-01
  0.2921015500D+02  0.2321844388D+00
  0.9286663000D+01  0.4679413476D+00
  0.3163927000D+01  0.3623119882D+00
 s    3  1.00
  0.7868272300D+01 -0.1193324245D+00
  0.1881288500D+01 -0.1608541561D+00
  0.5442492600D+00  0.1143456443D+01
 s    1  1.00
  0.1687144800D+00  0.1000000000D+01
 p    3  1.00
  0.7868272300D+01  0.6899906693D-01
  0.1881288500D+01  0.3164239597D+00
  0.5442492600D+00  0.7443082892D+00
 p    1  1.00
  0.1687144800D+00  0.1000000000D+01
  
  5 0
 s    6  1.00
  0.5484671700D+04  0.1831074396D-02
  0.8252349500D+03  0.1395017197D-01
  0.1880469600D+03  0.6844507786D-01
  0.5296450000D+02  0.2327143395D+00
  0.1689757000D+02  0.4701928990D+00
  0.5799635300D+01  0.3585208493D+00
 s    3  1.00
  0.1553961600D+02 -0.1107775519D+00
  0.3599933600D+01 -0.1480262626D+00
  0.1013761800D+01  0.1130767020D+01
 s    1  1.00
  0.2700058200D+00  0.1000000000D+01
 p    3  1.00
  0.1553961600D+02  0.7087426737D-01
  0.3599933600D+01  0.3397528370D+00
  0.1013761800D+01  0.7271585736D+00
 p    1  1.00
  0.2700058200D+00  0.1000000000D+01
  
  6 0
 s    6  1.00
  0.5484671700D+04  0.1831074396D-02
  0.8252349500D+03  0.1395017197D-01
  0.1880469600D+03  0.6844507786D-01
  0.5296450000D+02  0.2327143395D+00
  0.1689757000D+02  0.4701928990D+00
  0.5799635300D+01  0.3585208493D+00
 s    3  1.00
  0.1553961600D+02 -0.1107775519D+00
  0.3599933600D+01 -0.1480262626D+00
  0.1013761800D+01  0.1130767020D+01
 s    1  1.00
  0.2700058200D+00  0.1000000000D+01
 p    3  1.00
  0.1553961600D+02  0.7087426737D-01
  0.3599933600D+01  0.3397528370D+00
  0.1013761800D+01  0.7271585736D+00
 p    1  1.00
  0.2700058200D+00  0.1000000000D+01
  
  7 0
 s    6  1.00
  0.4173511500D+04  0.1834772199D-02
  0.6274579100D+03  0.1399462699D-01
  0.1429020900D+03  0.6858655195D-01
  0.4023432900D+02  0.2322408698D+00
  0.1282021300D+02  0.4690699496D+00
  0.4390437000D+01  0.3604551997D+00
 s    3  1.00
  0.1162636200D+02 -0.1149611854D+00
  0.2716279800D+01 -0.1691174879D+00
  0.7722184000D+00  0.1145851954D+01
 s    1  1.00
  0.2120315000D+00  0.1000000000D+01
 p    3  1.00
  0.1162636200D+02  0.6757974372D-01
  0.2716279800D+01  0.3239072986D+00
  0.7722184000D+00  0.7408951369D+00
 p    1  1.00
  0.2120315000D+00  0.1000000000D+01
  
  8 0
 s    6  1.00
  0.3047524900D+04  0.1834737091D-02
  0.4573695200D+03  0.1403732293D-01
  0.1039486800D+03  0.6884262165D-01
  0.2921015500D+02  0.2321844388D+00
  0.9286663000D+01  0.4679413476D+00
  0.3163927000D+01  0.3623119882D+00
 s    3  1.00
  0.7868272300D+01 -0.1193324245D+00
  0.1881288500D+01 -0.1608541561D+00
  0.5442492600D+00  0.1143456443D+01
 s    1  1.00
  0.1687144800D+00  0.1000000000D+01
 p    3  1.00
  0.7868272300D+01  0.6899906693D-01
  0.1881288500D+01  0.3164239597D+00
  0.5442492600D+00  0.7443082892D+00
 p    1  1.00
  0.1687144800D+00  0.1000000000D+01
  
  9 0
 s    6  1.00
  0.5484671700D+04  0.1831074396D-02
  0.8252349500D+03  0.1395017197D-01
  0.1880469600D+03  0.6844507786D-01
  0.5296450000D+02  0.2327143395D+00
  0.1689757000D+02  0.4701928990D+00
  0.5799635300D+01  0.3585208493D+00
 s    3  1.00
  0.1553961600D+02 -0.1107775519D+00
  0.3599933600D+01 -0.1480262626D+00
  0.1013761800D+01  0.1130767020D+01
 s    1  1.00
  0.2700058200D+00  0.1000000000D+01
 p    3  1.00
  0.1553961600D+02  0.7087426737D-01
  0.3599933600D+01  0.3397528370D+00
  0.1013761800D+01  0.7271585736D+00
 p    1  1.00
  0.2700058200D+00  0.1000000000D+01
  
 10 0
 s    6  1.00
  0.5484671700D+04  0.1831074396D-02
  0.8252349500D+03  0.1395017197D-01
  0.1880469600D+03  0.6844507786D-01
  0.5296450000D+02  0.2327143395D+00
  0.1689757000D+02  0.4701928990D+00
  0.5799635300D+01  0.3585208493D+00
 s    3  1.00
  0.1553961600D+02 -0.1107775519D+00
  0.3599933600D+01 -0.1480262626D+00
  0.1013761800D+01  0.1130767020D+01
 s    1  1.00
  0.2700058200D+00  0.1000000000D+01
 p    3  1.00
  0.1553961600D+02  0.7087426737D-01
  0.3599933600D+01  0.3397528370D+00
  0.1013761800D+01  0.7271585736D+00
 p    1  1.00
  0.2700058200D+00  0.1000000000D+01
  
 11 0
 s    3  1.00
  0.1873113700D+02  0.3349460400D-01
  0.2825394400D+01  0.2347269500D+00
  0.6401216900D+00  0.8137573301D+00
 s    1  1.00
  0.1612777600D+00  0.1000000000D+01
  
 12 0
 s    3  1.00
  0.1873113700D+02  0.3349460400D-01
  0.2825394400D+01  0.2347269500D+00
  0.6401216900D+00  0.8137573301D+00
 s    1  1.00
  0.1612777600D+00  0.1000000000D+01
  
 13 0
 s    3  1.00
  0.1873113700D+02  0.3349460400D-01
  0.2825394400D+01  0.2347269500D+00
  0.6401216900D+00  0.8137573301D+00
 s    1  1.00
  0.1612777600D+00  0.1000000000D+01
  
 14 0
 s    3  1.00
  0.1873113700D+02  0.3349460400D-01
  0.2825394400D+01  0.2347269500D+00
  0.6401216900D+00  0.8137573301D+00
 s    1  1.00
  0.1612777600D+00  0.1000000000D+01
  
 15 0
 s    3  1.00
  0.1873113700D+02  0.3349460400D-01
  0.2825394400D+01  0.2347269500D+00
  0.6401216900D+00  0.8137573301D+00
 s    1  1.00
  0.1612777600D+00  0.1000000000D+01
  
 16 0
 s    3  1.00
  0.1873113700D+02  0.3349460400D-01
  0.2825394400D+01  0.2347269500D+00
  0.6401216900D+00  0.8137573301D+00
 s    1  1.00
  0.1612777600D+00  0.1000000000D+01
  
 17 0
 s    3  1.00
  0.1873113700D+02  0.3349460400D-01
  0.2825394400D+01  0.2347269500D+00
  0.6401216900D+00  0.8137573301D+00
 s    1  1.00
  0.1612777600D+00  0.1000000000D+01
  
 18 0
 s    3  1.00
  0.1873113700D+02  0.3349460400D-01
  0.2825394400D+01  0.2347269500D+00
  0.6401216900D+00  0.8137573301D+00
 s    1  1.00
  0.1612777600D+00  0.1000000000D+01
 
 
[MO]
 Sym=      1.1
 Ene=     -20.6491
 Spin= Alpha
 Occup=    2.000000
1 -0.000059343080025
2 -0.000694440055540
3 0.003249105876651
4 0.000026974180161
5 -0.000110825162092
6 0.000130124426813
7 0.000734909182780
8 0.001474868440225
9 -0.003276786090928
10 0.000017198995847
11 0.000085758019775
12 -0.002081316347976
13 0.000082918608504
14 0.000007157853403
15 0.000002599050324
16 0.000295012254192
17 0.001125424100330
18 0.000802817249646
19 -0.000018832067604
20 -0.000144996817642
21 0.001157027837081
22 -0.000024554259810
23 0.000000272788841
24 -0.000019478799456
25 -0.000326057250622
26 0.000444515449299
27 -0.000087828539290
28 0.000006321726490
29 0.000047236165352
30 -0.000330904952559
31 0.000005298437199
32 0.000006247179799
33 0.000000338152760
34 0.000332900693065
35 -0.000149095247678
36 -0.000027497911766
37 0.000008965959716
38 0.000023334906115
39 -0.000157097448730
40 0.000006300631184
41 0.000009033781327
42 -0.000002678116798
43 0.000006560593431
44 -0.000041455510122
45 0.000005951253481
46 -0.000000907773988
47 -0.000010643352316
48 0.000146318069621
49 -0.000010205615111
50 0.000002172421595
51 -0.000003535717371
52 -0.000005026394942
53 -0.000056462046241
54 0.000015967377087
55 0.000009293090810
56 0.000051929997681
57 -0.001190179295842
58 0.000048395276768
59 -0.000029166236396
60 -0.000031333463606
61 -0.000747091863821
62 -0.000600601292897
63 -0.000143644604886
64 0.000164913040783
65 0.000295938238046
66 0.005519426044988
67 0.000018849666606
68 -0.000014825979805
69 0.000014558457877
70 -0.004836413839184
71 -0.000136617585446
72 0.007297128466816
73 0.99589748564460
74 0.023357452223519
75 -0.015477384314583
76 0.001412626256041
77 -0.000132199273478
78 -0.001900618627310
79 -0.002891016590123
80 0.000163641272747
81 0.004045934611585
82 -0.000426636107644
83 -0.000485681432144
84 0.001952705723421
85 -0.000069073078395
86 0.000094033537957
87 -0.000057268888077
88 0.001060521116154
89 -0.000812365911863
90 -0.000182436184201
91 0.000136458931116
92 0.001131684910155
93 0.000031425166250
94 -0.000650806062252
95 0.000048246078376
96 0.000398610449424
97 -0.000015792282994
98 -0.000505376399551
99 0.000110809702878
100 0.000131087898657
101 0.000019659648105
102 0.000297008801921
103 -0.000049322304831
104 -0.000002738672225
105 -0.000034113251359
106 0.000051314256493
 Sym=      2.1
 Ene=     -20.5675
 Spin= Alpha
 Occup=    2.000000
1 -0.000069873426768
2 -0.000745309982383
3 0.004065999552511
4 0.000266685509623
5 -0.000220564664524
6 -0.000055275308208
7 -0.002298083608979
8 0.001045603090723
9 0.002317284272343
10 0.000034433830927
11 0.000280722838450
12 -0.000595898188274
13 -0.000065744559844
14 0.000009559297210
15 0.000059067818788
16 0.000945183423973
17 -0.000647893634686
18 -0.000934480284786
19 0.000003950321187
20 0.000008175287493
21 -0.000830577070878
22 0.000079260455566
23 0.000024333008232
24 -0.000034005309062
25 -0.000591932714458
26 -0.000566443184193
27 0.000465279493522
28 -0.000006145774855
29 -0.000033965001971
30 0.000789091601753
31 -0.000021045710648
32 0.000004515024706
33 -0.000004488643051
34 -0.000190019977060
35 -0.000586048872457
36 -0.000024877276972
37 0.000062973306547
38 0.000055453953514
39 -0.000310501918253
40 -0.000008573396055
41 -0.000008782151384
42 0.000000931200613
43 0.000143550629584
44 0.000039002995913
45 -0.000003575463020
46 -0.000012847415703
47 -0.000034934302958
48 0.000221096858903
49 -0.000012067147017
50 0.000001623558271
51 -0.000004065019459
52 0.000061873720763
53 -0.000053149422379
54 0.000022003049212
55 0.000016334892005
56 0.000189165838775
57 -0.000050981599505
58 -0.000076965230589
59 0.000049194804038
60 0.000019735179126
61 0.000995689544186
62 -0.000287922623274
63 -0.000100019762480
64 0.000119685804428
65 -0.000008893050188
66 0.003816003151466
67 -0.000099298160121
68 0.000082849615565
69 -0.000019255745909
70 -0.001884927660951
71 0.005711974536131
72 -0.006724742178166
73 0.000392193812717
74 -0.000483433780400
75 0.002028717581924
76 -0.000109254894299
77 0.000073891346040
78 0.000050811758588
79 0.001087894449910
80 -0.001084312618474
81 0.000165286646010
82 0.99590984367653
83 0.023173942086217
84 -0.014863786722568
85 0.000497768918903
86 -0.001530503597207
87 0.001684358023692
88 -0.000952381564607
89 0.003121634212128
90 -0.003759528480561
91 -0.000411655987840
92 -0.000439504733345
93 0.000194500381400
94 0.000524618718711
95 -0.000043507563359
96 -0.000037790412872
97 0.000214961114521
98 0.000197112647014
99 -0.000103261461471
100 -0.000358827983466
101 0.000027395123616
102 0.000082981726825
103 0.000023028294010
104 0.000058459414273
105 -0.000037955316262
106 -0.000265932197823
 Sym=      3.1
 Ene=     -20.5427
 Spin= Alpha
 Occup=    2.000000
1 -0.000022600997393
2 -0.000175754253101
3 0.001674265076725
4 0.000096364382134
5 -0.000036281807983
6 0.000002485007156
7 0.000136174913645
8 0.000838179321901
9 -0.000117418146322
10 -0.000025492649851
11 -0.000270737563812
12 -0.000325211528312
13 -0.000243601736618
14 0.000014837185185
15 0.000026947595256
16 0.001827396034200
17 0.000727379649132
18 -0.000208004638375
19 -0.000011979117093
20 -0.000303441726662
21 0.000792035935129
22 -0.000033839585520
23 0.000070350658530
24 0.000007856325240
25 -0.000731003727335
26 0.000564158727203
27 -0.000006023587578
28 0.000157442616834
29 0.000306805926088
30 0.006418267137646
31 -0.000093184292090
32 0.000011463771630
33 0.000012703198818
34 0.006444480554501
35 -0.004248865617969
36 -0.000513785445292
37 0.99588415810714
38 0.023328372346131
39 -0.015012029123777
40 -0.002096894828332
41 0.001050651948135
42 0.000178151328608
43 0.004324311965023
44 -0.002299344503846
45 -0.000370781017702
46 -0.000556034566821
47 -0.000364397259845
48 0.001365119311419
49 0.000008737781548
50 0.000131750716407
51 -0.000006852330688
52 -0.000954401013339
53 -0.000431698772688
54 0.000123404179116
55 0.000003732908334
56 0.000046044594310
57 -0.000214493488325
58 0.000006657175811
59 -0.000009188490137
60 -0.000020574951292
61 0.000004002965747
62 -0.000047053342475
63 0.000108063910344
64 -0.000003071663588
65 -0.000069633895271
66 -0.000246626809113
67 -0.000073310609366
68 0.000018011326879
69 0.000007831952007
70 -0.000139814185323
71 0.000306322237438
72 -0.000097690582675
73 -0.000007081590044
74 0.000015290025743
75 -0.000010036803998
76 0.000009403247233
77 0.000010053717680
78 0.000002825806940
79 -0.000022921045411
80 -0.000071048921788
81 0.000006767773918
82 -0.000056949596663
83 0.000050422032066
84 -0.000231387462275
85 -0.000006570109243
86 -0.000007007555885
87 0.000004459009706
88 0.000001330854153
89 0.000051456034519
90 -0.000072264973735
91 -0.000027360045468
92 0.000136556747330
93 -0.000107825606613
94 -0.000103135414228
95 -0.000101550850406
96 -0.000105505008916
97 0.000011567367522
98 0.000042363659323
99 -0.000035621364694
100 0.000203028433733
101 0.000033941482246
102 0.000058386749095
103 0.000033700440411
104 -0.000370371838571
105 0.000025006639594
106 -0.000234069504688
 Sym=      4.1
 Ene=     -20.4871
 Spin= Alpha
 Occup=    2.000000
1 -0.000001836169778
2 -0.000095103630609
3 -0.000398795152450
4 -0.000129130645203
5 0.000019662006453
6 0.000012571215421
7 0.000621505757239
8 -0.000521310138496
9 -0.000063196144686
10 -0.000030136264631
11 -0.000373718449057
12 0.002123164293982
13 -0.000082054829707
14 -0.000107341188551
15 0.000009902683567
16 0.000613512872350
17 -0.000430790556686
18 -0.000015395381225
19 0.000005586191037
20 -0.000064869899793
21 0.000758318150252
22 -0.000179102560033
23 -0.000090069683513
24 0.000025341717647
25 0.002628698737705
26 -0.001272664422857
27 -0.000257396940635
28 0.000125493035594
29 0.000202557407911
30 0.004520028179054
31 -0.000069498619387
32 0.000054433335409
33 0.000006606108719
34 0.000367847390653
35 0.007497013045800
36 -0.000370095703566
37 0.000536689312810
38 -0.000342353517805
39 0.001188403624358
40 0.000130908245541
41 0.000015750732735
42 -0.000014613434015
43 -0.000874652745229
44 -0.000932865150860
45 0.000135941236395
46 0.99588965808805
47 0.023017295086982
48 -0.013812278559708
49 -0.000115000503233
50 -0.002245743911564
51 0.000108268913651
52 -0.000030160375417
53 0.004622165140276
54 -0.000197252959849
55 0.000002002462021
56 0.000009622667901
57 -0.000164992915893
58 -0.000033000347517
59 -0.000012017133668
60 0.000006682529134
61 0.000006583261301
62 0.000090252834085
63 -0.000104029378634
64 -0.000012610910146
65 -0.000119646686841
66 0.000841399388979
67 -0.000002673979664
68 -0.000004444604563
69 -0.000000538885971
70 0.000386531539393
71 -0.000314643750681
72 0.000029494453143
73 -0.000000137904557
74 -0.000001559423650
75 -0.000040942946947
76 0.000004610294077
77 -0.000003622599060
78 0.000002053884435
79 -0.000059735910845
80 0.000041610800200
81 -0.000005602252938
82 0.000009712383791
83 -0.000026470131718
84 0.000054843342245
85 -0.000003639590723
86 -0.000002672211511
87 -0.000001737074710
88 -0.000024736450749
89 0.000024064589703
90 0.000021524077192
91 -0.000049013971083
92 -0.000023649534825
93 -0.000117851863302
94 -0.000198724504505
95 -0.000114836540973
96 -0.000164460405230
97 0.000033631174504
98 0.000038664954563
99 0.000012966358418
100 0.000085286010872
101 -0.000025699451258
102 -0.000024338678481
103 -0.000020644161269
104 -0.000286450792608
105 -0.000026105207913
106 -0.000226617085368
 Sym=      5.1
 Ene=     -15.8028
 Spin= Alpha
 Occup=    2.000000
1 0.000001983446988
2 -0.000469091116856
3 0.003550933774395
4 -0.000051091605467
5 -0.000158133573570
6 -0.000136315296953
7 -0.000190347158948
8 -0.001802285283329
9 -0.001693337320550
10 -0.000029381940451
11 -0.000389414790856
12 0.000641154841251
13 0.000084104566071
14 0.000176552783638
15 0.000077780966101
16 0.000130186810741
17 -0.000539147745564
18 -0.000114893059616
19 0.000010001041456
20 -0.000001748854639
21 -0.000273108102010
22 0.000050422559942
23 -0.000018375952608
24 0.000091196207347
25 0.000482549769711
26 -0.000005904336284
27 -0.000507991129752
28 0.000002224832718
29 0.000014646919429
30 -0.000179305367510
31 0.000007186878939
32 0.000014446528830
33 -0.000004817045492
34 0.000209732650869
35 -0.000004946808153
36 0.000119504523880
37 0.000001799834598
38 0.000038190185758
39 -0.000149556690537
40 -0.000004126285315
41 0.000000363597034
42 0.000008903415707
43 0.000042412037540
44 -0.000020077116240
45 -0.000053589790335
46 -0.000000206761085
47 -0.000006534662773
48 0.000042495932710
49 0.000005506189514
50 0.000000950413713
51 0.000012622185030
52 -0.000044718628821
53 -0.000013720343879
54 -0.000056284330928
55 0.99604793103092
56 0.024428423166462
57 -0.014495681922966
58 -0.000018868824158
59 -0.000071465782023
60 0.000027237700592
61 -0.000230734429456
62 -0.000709928720493
63 -0.001104963654049
64 -0.000027729837006
65 -0.000380155088077
66 0.000763825206814
67 -0.000138968039593
68 0.000145321604017
69 0.000053192572031
70 0.000622293463541
71 -0.000079541819588
72 -0.000433047989153
73 -0.000003598802748
74 -0.000031962766971
75 0.000297847042589
76 -0.000004345333711
77 -0.000035139994462