[Molden Format]
[Molpro variables]
_NUMVAR=  839.0000000000000    
_AVOGAD= 0.6022136736000000E+24
_BOLTZ= 0.1380658000000000E-22
_CLIGHT=  29979245800.00000    
_EV2006= 0.3674930886769165E-01
_EV= 0.3674932534394180E-01
_ENULL= 0.8854187817000000E-11
_KJOULE= 0.3808798324128737E-03
_KJOULE/MOL= 0.3808798324128737E-03
_CM= 0.4556335267302901E-05
_CM-1= 0.4556335267302901E-05
_DEB2SI= 0.3335641000000000E-29
_AMU2AU=  1822.888390000000    
_KCAL= 0.1593601117815568E-02
_KCAL/MOL= 0.1593601117815568E-02
_KELVIN2006= 0.3166828861084835E-05
_KELVIN= 0.3166814820820034E-05
_JOULE= 0.4359748200000000E-17
_HERTZ2006= 0.1519829850815779E-15
_HERTZ= 0.1519829846011223E-15
_HZ2006= 0.1519829850815779E-15
_HZ= 0.1519829846011223E-15
_JPCAL=  4.184000000000000    
_PLANCK= 0.6626075540000000E-33
_TOA2006= 0.5291772490000000    
_TOA= 0.5291772090000000    
_TOANG2006= 0.5291772490000000    
_TOANG= 0.5291772090000000    
_TORAD= 0.1745329251994330E-01
_TOCM=  219474.6306700000    
_TODEBYE=  2.541580000000000    
_TOEV2006=  27.21139610000000    
_TOE= 0.4803242000000000E-09
_TOEV=  27.21138390000000    
_TOHERTZ2006=  6579683899900000.    
_TOHERTZ=  6579683920700000.    
_TOHZ2006=  6579683899900000.    
_TOHZ=  6579683920700000.    
_TOK2006=  315773.3000000000    
_TOK=  315774.7000000000    
_TOKCAL=  627.5096000000000    
_TOKELVIN2006=  315773.3000000000    
_TOKELVIN=  315774.7000000000    
_TOKJ=  2625.500000000000    
_TOKJOULE=  2625.500000000000    
_TOKG= 0.1660565586000000E-26
_ANG2006=  1.889725988578923    
_ANG=  1.889726131421507    
_ANGSTROM2006=  1.889725988578923    
_ANGSTROM=  1.889726131421507    
_RPAREF=  0.000000000000000    
_RPADISS=  0.000000000000000    
_IGNORE_UNDEF=  2.000000000000000    
_STRICTCHECK=  0.000000000000000    
_SEW_ONEEL=  0.000000000000000    
_CPPDONE=FALSE
_DKROLL_DONE=  0.000000000000000    
_FOCKDONE=TRUE
_GRADONE=FALSE
_HESSDONE=FALSE
_INTDONE=TRUE
_SCFDONE=TRUE
_MODUL_BLOCK=FALSE
_MODUL_CUDA=FALSE
_MODUL_SLATER=FALSE
_MODUL_MRCC=FALSE
_MODUL_NBO6=FALSE
_MODUL_NECI=TRUE
_MODUL_AIMS=TRUE
_MRCC_EXEC=
_FITC_AO_SAVED=FALSE
_FITC_MO_SAVED=FALSE
_SHARED_FS=TRUE
_LSTYP=SEWARD
_INTYP=INTS
_GEOMTYP=ZMAT
_GRADTYP=ALASKA
_DIRECT=FALSE
_DKHO= -1.000000000000000    
_SYNCM=  0.000000000000000    
_BASIS=$BSET
_ZORIENT=  1.000000000000000    
_NELEC=  78.00000000000000    
!SPIN=  0.000000000000000    
_QSDSTEP=  0.000000000000000    
_QSDIRC=  0.000000000000000    
_PROGRAM=HF-SCF
_CPUSTEP=  1.730000000000000    
_SYSSTEP= 0.7000000000000001E-01
_WALLSTEP=  1.800000000000000    
!DFSCF=  0.000000000000000    
!SCSGRD=  0.000000000000000    
_BASINP=  610.0000000000000    
_CPUTOT=  5.000000000000000    
_CPUSORT= 0.5599999999999996    
_SYSSORT= 0.1700000000000000    
_WALLSORT= 0.7299999967217445    
_DFTEXFAC=  1.000000000000000    
_DMX= -2.898704481490697    
_DMY= -5.692538491066600    
_DMZ=  1.514205130734979    
_DMX_SCF= -2.898704481490697    
_DMY_SCF= -5.692538491066600    
_DMZ_SCF=  1.514205130734979    
_EHOMO=-0.3185185947243788    
_ELUMO= 0.1033155544549178    
_ENERGY= -528.3578260351903    
_ENUC=  543.6678923129906    
_GRADEXFAC=  9999.000000000000    
_GRADMETHOD=  1.000000000000000    
_NMRMETHOD=  0.000000000000000    
!GRID_FREEZE= -1.000000000000000    
_ITERATIONS=  11.00000000000000    
_LASTNELEC=  78.00000000000000    
_LASTSPIN=  0.000000000000000    
_LASTSYM=  1.000000000000000    
_MPP_PROG=  0.000000000000000    
_NPROC_MPP=  1.000000000000000    
_NPROC_MPPX=  1.000000000000000    
_NPROC_SMP=  1.000000000000000    
_NUMSTEP=  0.000000000000000    
_ORBITAL=  2100.200000000000    
_PI=  3.141592653589793    
_SEIG_MIN= 0.2843625990150308E-02
_SEWPROP=TRUE
_STATUS=  1.000000000000000    
_SYSTOT= 0.2600000000000000    
_VERSION=  2012001.000000000    
_WALLTOT=  5.260000000000000    
_DATE=23-Sep-15
_LASTORB=RHF
_MACHINE=Linux-3.2.0-90-generic/sce-chem-c01105(x86_64) 64 bit serial version
_OUTPUT=/home/s1267651/phd_mini_19Sept2015/protein/molpro2/glutamine_6-31g_scf.xml
_PGROUP=C1
_TIME=17:56:11
_LIBMOL=/usr/local/molpro/molprop_2012_1_Linux_x86_64_i8/lib/
!VIBCNT=  0.000000000000000    
!RGHFCNT=  0.000000000000000    
!SURFREC=  0.000000000000000    
!POLYREC=  0.000000000000000    
!DIPREC=  0.000000000000000    
!VSCFREC=  0.000000000000000    
!VCIREC=  0.000000000000000    
!PVCIREC=  0.000000000000000    
!VMP2REC=  0.000000000000000    
!VMCSCFREC=  0.000000000000000    
!VMRCIREC=  0.000000000000000    
!VIBINFO=  0.000000000000000    
!GAREC=  0.000000000000000    
!SCFORB=  21002.00000000000    
!NEWMOL= -1.000000000000000    
!NEWSYM= -1.000000000000000    
_SLFILES=slscratch
_NGSSTO=  9.000000000000000    
_SIN=SIN
_COS=COS
_TAN=TAN
_ACOS=ACOS
_ASIN=ASIN
_ATAN=ATAN
_COSH=COSH
_SINH=SINH
_TANH=TANH
_ABS=ABS
_MOD=MOD
_ERF=ERF
_REFC=REFC
_ERFC=ERFC
_HYPOT=HYPOT
_J0=J0
_J1=J1
_JN=JN
_GAMMA=GAMMA
_LGAMMA=LGAMMA
_Y0=Y0
_Y1=Y1
_YN=YN
_EXP=EXP
_LOG=LOG
_LOG10=LOG10
_SQRT=SQRT
_INT=INT
_NINT=NINT
_MAX=MAX
_MIN=MIN
_COSMO=  0.000000000000000    
_COSMOIT=  0.000000000000000    
_COSMOES=  0.000000000000000    
_COSMOEDS=  0.000000000000000    
_COSMOEC=  0.000000000000000    
_COSMOEDCORR=  0.000000000000000    
_FEPSI=  1.000000000000000    
_SL_IsMM=  0.000000000000000    
_SL_NSYM=  1.000000000000000    
_SL_System_BitSw=  0.000000000000000    
_SL_Unique_atoms=  0.000000000000000    
_SL_GRAD=  0.000000000000000    
_SL_MAXUPD_Hess=  5.000000000000000    
_SL_N_PRINT_COD=  5.000000000000000    
_SL_PRINT_CODES=  0.000000000000000    
_SL_BasType=  0.000000000000000    
_SL_Energy_Pred=  0.000000000000000    
_SL_New_Coords=  0.000000000000000    
_SL_Total_Nuclea=  0.000000000000000    
_SL_Highest_Mltp=  0.000000000000000    
_SL_Ref_Geom=  0.000000000000000    
_SL_Symmetry_ope=  1.000000000000000    
_SL_agrad=  0.000000000000000    
_SL_GrdMax=  0.000000000000000    
_SL_GrdNorm=  0.000000000000000    
_SL_GrdRMS=  0.000000000000000    
_SL_Hss_Q=  0.000000000000000    
_SL_Hss_X=  0.000000000000000    
_SL_BMxOld=  0.000000000000000    
_SL_KtB=  0.000000000000000    
!LATTICE= -1.000000000000000    
!NEWLATTICE=  0.000000000000000    
!LATGRAD_VAR=FALSE
!SEW_LATTICE=  1.000000000000000    
!LOCAL=  0.000000000000000    
!SAVEDOM= -1.000000000000000    
!RESTDOM= -1.000000000000000    
!SAVEDOM_HF= -1.000000000000000    
!RESTDOM_HF= -1.000000000000000    
!HESSREC=  0.000000000000000    
!FREQREC=  0.000000000000000    
!NMODREC=  0.000000000000000    
!GTASKS=  0.000000000000000    
!HTASKS=  0.000000000000000    
!THRCHG= 0.1000000000000000    
!DEBUG= -1.000000000000000    
!CFIT_CPHF=  0.000000000000000    
!RDOMAUX_CPHF=  3.000000000000000    
!THRAO_CPHF= 0.1000000000000000E-09
!THRMO_CPHF= 0.1000000000000000E-08
!THROV_CPHF= 0.1000000000000000E-11
!THRSW_CPHF= 0.1000000000000000E-09
!THRPROD_CPHF= 0.1000000000000000E-08
!THRAOPR_CPHF= 0.1000000000000000E-11
!CFIT_SCFGRD=  0.000000000000000    
!RDOMAUX_SCFGRD=  5.000000000000000    
!THRAO_SCFGRD= 0.1000000000000000E-09
!THRMO_SCFGRD= 0.1000000000000000E-08
!THROV_SCFGRD= 0.1000000000000000E-11
!THRSW_SCFGRD= 0.1000000000000000E-09
!THRPROD_SCFGRD= 0.1000000000000000E-08
!THRAOPR_SCFGRD= 0.1000000000000000E-11
!LOCFIT_SCF=  0.000000000000000    
!LOCFIT_MP2= -1.000000000000000    
_RIDOM=  0.000000000000000    
!CC2_METHOD=  0.000000000000000    
_BASIS2006=FALSE
_SVDDEL= -1.000000000000000    
_SVDDELA= -1.000000000000000    
_SVDDELP= -1.000000000000000    
_SVDDELF= -1.000000000000000    
_SVDDELS= -1.000000000000000    
_SVDDEL_ABS= -1.000000000000000    
_SVDDELA_ABS= -1.000000000000000    
_SVDDELP_ABS= -1.000000000000000    
_SVDDELF_ABS= -1.000000000000000    
_SVDDELS_ABS= -1.000000000000000    
_MAXBASIS=  0.000000000000000    
!OPT_CONICAL=  0.000000000000000    
!CLEARSP_JGRID=  0.000000000000000    
_4EXT_NDISKS=  1.000000000000000    
!ZMP=  0.000000000000000    
_MAXIT_ZMP=  500.0000000000000    
_MAXDIS_ZMP=  100.0000000000000    
_ACCU_ZMP=  14.00000000000000    
_SHIFTA_ZMP= -100.0000000000000    
!EMBEDFLAG=  1.000000000000000    
!EMBED=FALSE
!EMBED_F12=FALSE
!EMBEDNUC=  0.000000000000000    
_EMBEDENERGY=  0.000000000000000    
_KSPACETIME=  0.000000000000000    
_RSPACETIME=  0.000000000000000    
!EMBED_DFC=FALSE
!NUM_VOIDS=  0.000000000000000    
_IBODY=  0.000000000000000    
_EMBE_TOTAL=  0.000000000000000    
_EMBE_HF=  0.000000000000000    
_EMBE_CORR=  0.000000000000000    
!EDFT=  0.000000000000000    
_IFASTLATGRAD=  0.000000000000000    
_SINDEX=  0.000000000000000    
TITLE=GLUTAMINE
BSET=6-31G
GX1=  1.677000000000000    
GY1= 0.8000000000000000E-02
GZ1=-0.8600000000000000    
GX2= 0.3140000000000000    
GY2= 0.6690000000000000    
GZ2=-0.6580000000000004    
GX3=-0.7680000000000000    
GY3=-0.4080000000000000    
GZ3=-0.5870000000000000    
GX4= -2.115000000000000    
GY4= 0.2450000000000000    
GZ4=-0.3880000000000001    
GX5= -2.199000000000000    
GY5=  1.470000000000000    
GZ5=-0.3090000000000000    
GX6= -3.210000000000000    
GY6=-0.5040000000000000    
GZ6=-0.2970000000000000    
GX7=  1.961000000000001    
GY7=-0.9090000000000000    
GZ7= 0.2850000000000001    
GX8=  2.747000000000000    
GY8=  1.072000000000000    
GZ8=-0.9310000000000003    
GX9=  3.436000000000001    
GY9=  1.179000000000000    
GZ9= -1.931000000000000    
GX10=  2.928000000000000    
GY10=  1.856000000000000    
GZ10= 0.5200000000000000E-01
GX11=  1.671000000000000    
GY11=-0.5610000000000001    
GZ11= -1.788000000000000    
GX12= 0.1080000000000000    
GY12=  1.336000000000001    
GZ12= -1.492000000000000    
GX13= 0.3210000000000001    
GY13=  1.238000000000000    
GZ13= 0.2690000000000000    
GX14=  2.885000000000000    
GY14= -1.356000000000000    
GZ14= 0.1490000000000001    
GX15=  1.228000000000000    
GY15= -1.638000000000000    
GZ15= 0.3340000000000001    
GX16=  1.968000000000000    
GY16=-0.3670000000000000    
GZ16=  1.167000000000000    
GX17=-0.5610000000000001    
GY17= -1.075000000000000    
GZ17= 0.2460000000000000    
GX18=-0.7740000000000000    
GY18=-0.9770000000000001    
GZ18= -1.515000000000000    
GX19= -4.111000000000000    
GY19=-0.6800000000000002E-01
GZ19=-0.1640000000000000    
GX20= -3.140000000000000    
GY20= -1.510000000000000    
GZ20=-0.3620000000000000    
STR=../input/GLUTAMINE_6-31G_scf.mld
[Atoms] Angs
C     1    6         1.6770000000        0.0080000000       -0.8600000000
C     2    6         0.3140000000        0.6690000000       -0.6580000000
C     3    6        -0.7680000000       -0.4080000000       -0.5870000000
C     4    6        -2.1150000000        0.2450000000       -0.3880000000
O     5    8        -2.1990000000        1.4700000000       -0.3090000000
N     6    7        -3.2100000000       -0.5040000000       -0.2970000000
N     7    7         1.9610000000       -0.9090000000        0.2850000000
C     8    6         2.7470000000        1.0720000000       -0.9310000000
O     9    8         3.4360000000        1.1790000000       -1.9310000000
O    10    8         2.9280000000        1.8560000000        0.0520000000
H    11    1         1.6710000000       -0.5610000000       -1.7880000000
H    12    1         0.1080000000        1.3360000000       -1.4920000000
H    13    1         0.3210000000        1.2380000000        0.2690000000
H    14    1         2.8850000000       -1.3560000000        0.1490000000
H    15    1         1.2280000000       -1.6380000000        0.3340000000
H    16    1         1.9680000000       -0.3670000000        1.1670000000
H    17    1        -0.5610000000       -1.0750000000        0.2460000000
H    18    1        -0.7740000000       -0.9770000000       -1.5150000000
H    19    1        -4.1110000000       -0.0680000000       -0.1640000000
H    20    1        -3.1400000000       -1.5100000000       -0.3620000000
[GTO]
  1 0
 s    6  1.00
  0.3047524900D+04  0.1834737091D-02
  0.4573695200D+03  0.1403732293D-01
  0.1039486800D+03  0.6884262165D-01
  0.2921015500D+02  0.2321844388D+00
  0.9286663000D+01  0.4679413476D+00
  0.3163927000D+01  0.3623119882D+00
 s    3  1.00
  0.7868272300D+01 -0.1193324245D+00
  0.1881288500D+01 -0.1608541561D+00
  0.5442492600D+00  0.1143456443D+01
 s    1  1.00
  0.1687144800D+00  0.1000000000D+01
 p    3  1.00
  0.7868272300D+01  0.6899906693D-01
  0.1881288500D+01  0.3164239597D+00
  0.5442492600D+00  0.7443082892D+00
 p    1  1.00
  0.1687144800D+00  0.1000000000D+01
  
  2 0
 s    6  1.00
  0.3047524900D+04  0.1834737091D-02
  0.4573695200D+03  0.1403732293D-01
  0.1039486800D+03  0.6884262165D-01
  0.2921015500D+02  0.2321844388D+00
  0.9286663000D+01  0.4679413476D+00
  0.3163927000D+01  0.3623119882D+00
 s    3  1.00
  0.7868272300D+01 -0.1193324245D+00
  0.1881288500D+01 -0.1608541561D+00
  0.5442492600D+00  0.1143456443D+01
 s    1  1.00
  0.1687144800D+00  0.1000000000D+01
 p    3  1.00
  0.7868272300D+01  0.6899906693D-01
  0.1881288500D+01  0.3164239597D+00
  0.5442492600D+00  0.7443082892D+00
 p    1  1.00
  0.1687144800D+00  0.1000000000D+01
  
  3 0
 s    6  1.00
  0.3047524900D+04  0.1834737091D-02
  0.4573695200D+03  0.1403732293D-01
  0.1039486800D+03  0.6884262165D-01
  0.2921015500D+02  0.2321844388D+00
  0.9286663000D+01  0.4679413476D+00
  0.3163927000D+01  0.3623119882D+00
 s    3  1.00
  0.7868272300D+01 -0.1193324245D+00
  0.1881288500D+01 -0.1608541561D+00
  0.5442492600D+00  0.1143456443D+01
 s    1  1.00
  0.1687144800D+00  0.1000000000D+01
 p    3  1.00
  0.7868272300D+01  0.6899906693D-01
  0.1881288500D+01  0.3164239597D+00
  0.5442492600D+00  0.7443082892D+00
 p    1  1.00
  0.1687144800D+00  0.1000000000D+01
  
  4 0
 s    6  1.00
  0.3047524900D+04  0.1834737091D-02
  0.4573695200D+03  0.1403732293D-01
  0.1039486800D+03  0.6884262165D-01
  0.2921015500D+02  0.2321844388D+00
  0.9286663000D+01  0.4679413476D+00
  0.3163927000D+01  0.3623119882D+00
 s    3  1.00
  0.7868272300D+01 -0.1193324245D+00
  0.1881288500D+01 -0.1608541561D+00
  0.5442492600D+00  0.1143456443D+01
 s    1  1.00
  0.1687144800D+00  0.1000000000D+01
 p    3  1.00
  0.7868272300D+01  0.6899906693D-01
  0.1881288500D+01  0.3164239597D+00
  0.5442492600D+00  0.7443082892D+00
 p    1  1.00
  0.1687144800D+00  0.1000000000D+01
  
  5 0
 s    6  1.00
  0.5484671700D+04  0.1831074396D-02
  0.8252349500D+03  0.1395017197D-01
  0.1880469600D+03  0.6844507786D-01
  0.5296450000D+02  0.2327143395D+00
  0.1689757000D+02  0.4701928990D+00
  0.5799635300D+01  0.3585208493D+00
 s    3  1.00
  0.1553961600D+02 -0.1107775519D+00
  0.3599933600D+01 -0.1480262626D+00
  0.1013761800D+01  0.1130767020D+01
 s    1  1.00
  0.2700058200D+00  0.1000000000D+01
 p    3  1.00
  0.1553961600D+02  0.7087426737D-01
  0.3599933600D+01  0.3397528370D+00
  0.1013761800D+01  0.7271585736D+00
 p    1  1.00
  0.2700058200D+00  0.1000000000D+01
  
  6 0
 s    6  1.00
  0.4173511500D+04  0.1834772199D-02
  0.6274579100D+03  0.1399462699D-01
  0.1429020900D+03  0.6858655195D-01
  0.4023432900D+02  0.2322408698D+00
  0.1282021300D+02  0.4690699496D+00
  0.4390437000D+01  0.3604551997D+00
 s    3  1.00
  0.1162636200D+02 -0.1149611854D+00
  0.2716279800D+01 -0.1691174879D+00
  0.7722184000D+00  0.1145851954D+01
 s    1  1.00
  0.2120315000D+00  0.1000000000D+01
 p    3  1.00
  0.1162636200D+02  0.6757974372D-01
  0.2716279800D+01  0.3239072986D+00
  0.7722184000D+00  0.7408951369D+00
 p    1  1.00
  0.2120315000D+00  0.1000000000D+01
  
  7 0
 s    6  1.00
  0.4173511500D+04  0.1834772199D-02
  0.6274579100D+03  0.1399462699D-01
  0.1429020900D+03  0.6858655195D-01
  0.4023432900D+02  0.2322408698D+00
  0.1282021300D+02  0.4690699496D+00
  0.4390437000D+01  0.3604551997D+00
 s    3  1.00
  0.1162636200D+02 -0.1149611854D+00
  0.2716279800D+01 -0.1691174879D+00
  0.7722184000D+00  0.1145851954D+01
 s    1  1.00
  0.2120315000D+00  0.1000000000D+01
 p    3  1.00
  0.1162636200D+02  0.6757974372D-01
  0.2716279800D+01  0.3239072986D+00
  0.7722184000D+00  0.7408951369D+00
 p    1  1.00
  0.2120315000D+00  0.1000000000D+01
  
  8 0
 s    6  1.00
  0.3047524900D+04  0.1834737091D-02
  0.4573695200D+03  0.1403732293D-01
  0.1039486800D+03  0.6884262165D-01
  0.2921015500D+02  0.2321844388D+00
  0.9286663000D+01  0.4679413476D+00
  0.3163927000D+01  0.3623119882D+00
 s    3  1.00
  0.7868272300D+01 -0.1193324245D+00
  0.1881288500D+01 -0.1608541561D+00
  0.5442492600D+00  0.1143456443D+01
 s    1  1.00
  0.1687144800D+00  0.1000000000D+01
 p    3  1.00
  0.7868272300D+01  0.6899906693D-01
  0.1881288500D+01  0.3164239597D+00
  0.5442492600D+00  0.7443082892D+00
 p    1  1.00
  0.1687144800D+00  0.1000000000D+01
  
  9 0
 s    6  1.00
  0.5484671700D+04  0.1831074396D-02
  0.8252349500D+03  0.1395017197D-01
  0.1880469600D+03  0.6844507786D-01
  0.5296450000D+02  0.2327143395D+00
  0.1689757000D+02  0.4701928990D+00
  0.5799635300D+01  0.3585208493D+00
 s    3  1.00
  0.1553961600D+02 -0.1107775519D+00
  0.3599933600D+01 -0.1480262626D+00
  0.1013761800D+01  0.1130767020D+01
 s    1  1.00
  0.2700058200D+00  0.1000000000D+01
 p    3  1.00
  0.1553961600D+02  0.7087426737D-01
  0.3599933600D+01  0.3397528370D+00
  0.1013761800D+01  0.7271585736D+00
 p    1  1.00
  0.2700058200D+00  0.1000000000D+01
  
 10 0
 s    6  1.00
  0.5484671700D+04  0.1831074396D-02
  0.8252349500D+03  0.1395017197D-01
  0.1880469600D+03  0.6844507786D-01
  0.5296450000D+02  0.2327143395D+00
  0.1689757000D+02  0.4701928990D+00
  0.5799635300D+01  0.3585208493D+00
 s    3  1.00
  0.1553961600D+02 -0.1107775519D+00
  0.3599933600D+01 -0.1480262626D+00
  0.1013761800D+01  0.1130767020D+01
 s    1  1.00
  0.2700058200D+00  0.1000000000D+01
 p    3  1.00
  0.1553961600D+02  0.7087426737D-01
  0.3599933600D+01  0.3397528370D+00
  0.1013761800D+01  0.7271585736D+00
 p    1  1.00
  0.2700058200D+00  0.1000000000D+01
  
 11 0
 s    3  1.00
  0.1873113700D+02  0.3349460400D-01
  0.2825394400D+01  0.2347269500D+00
  0.6401216900D+00  0.8137573301D+00
 s    1  1.00
  0.1612777600D+00  0.1000000000D+01
  
 12 0
 s    3  1.00
  0.1873113700D+02  0.3349460400D-01
  0.2825394400D+01  0.2347269500D+00
  0.6401216900D+00  0.8137573301D+00
 s    1  1.00
  0.1612777600D+00  0.1000000000D+01
  
 13 0
 s    3  1.00
  0.1873113700D+02  0.3349460400D-01
  0.2825394400D+01  0.2347269500D+00
  0.6401216900D+00  0.8137573301D+00
 s    1  1.00
  0.1612777600D+00  0.1000000000D+01
  
 14 0
 s    3  1.00
  0.1873113700D+02  0.3349460400D-01
  0.2825394400D+01  0.2347269500D+00
  0.6401216900D+00  0.8137573301D+00
 s    1  1.00
  0.1612777600D+00  0.1000000000D+01
  
 15 0
 s    3  1.00
  0.1873113700D+02  0.3349460400D-01
  0.2825394400D+01  0.2347269500D+00
  0.6401216900D+00  0.8137573301D+00
 s    1  1.00
  0.1612777600D+00  0.1000000000D+01
  
 16 0
 s    3  1.00
  0.1873113700D+02  0.3349460400D-01
  0.2825394400D+01  0.2347269500D+00
  0.6401216900D+00  0.8137573301D+00
 s    1  1.00
  0.1612777600D+00  0.1000000000D+01
  
 17 0
 s    3  1.00
  0.1873113700D+02  0.3349460400D-01
  0.2825394400D+01  0.2347269500D+00
  0.6401216900D+00  0.8137573301D+00
 s    1  1.00
  0.1612777600D+00  0.1000000000D+01
  
 18 0
 s    3  1.00
  0.1873113700D+02  0.3349460400D-01
  0.2825394400D+01  0.2347269500D+00
  0.6401216900D+00  0.8137573301D+00
 s    1  1.00
  0.1612777600D+00  0.1000000000D+01
  
 19 0
 s    3  1.00
  0.1873113700D+02  0.3349460400D-01
  0.2825394400D+01  0.2347269500D+00
  0.6401216900D+00  0.8137573301D+00
 s    1  1.00
  0.1612777600D+00  0.1000000000D+01
  
 20 0
 s    3  1.00
  0.1873113700D+02  0.3349460400D-01
  0.2825394400D+01  0.2347269500D+00
  0.6401216900D+00  0.8137573301D+00
 s    1  1.00
  0.1612777600D+00  0.1000000000D+01
 
 
[MO]
 Sym=      1.1
 Ene=     -20.5486
 Spin= Alpha
 Occup=    2.000000
1 -0.000001054781068
2 -0.000084966772966
3 -0.000510403041310
4 0.000135709583439
5 0.000034733134231
6 -0.000014149744062
7 -0.000585873133650
8 -0.000649764150703
9 0.000054382588720
10 -0.000022900010950
11 -0.000317093685819
12 0.001844929653850
13 0.000065559356167
14 -0.000099492993849
15 -0.000008363706286
16 -0.000224048452509
17 -0.000384888819875
18 -0.000034522179606
19 -0.000006388541791
20 -0.000140796478115
21 0.001723521146185
22 0.000144698590815
23 -0.000090895605770
24 -0.000024903261111
25 -0.002687888556512
26 -0.001252507759695
27 0.000289334575495
28 0.000174109516195
29 0.000484631242522
30 0.004315477700141
31 0.000043266432537
32 -0.000063698375928
33 -0.000010602315689
34 -0.001241496881481
35 0.008849934256381
36 0.000645620001957
37 0.99588341795558
38 0.023360561859468
39 -0.015238181452709
40 0.000154470563720
41 -0.002384073454518
42 -0.000150332559370
43 -0.000274252121707
44 0.004922742585873
45 0.000308186766798
46 -0.000019608584373
47 -0.000327471106960
48 0.001577363850406
49 -0.000162981249192
50 -0.000018455583849
51 0.000018310995020
52 0.001910936744302
53 -0.001499523621034
54 -0.000314665523183
55 0.000001828174798
56 0.000006498236709
57 -0.000173758460007
58 0.000033671236988
59 -0.000014671845664
60 -0.000007226484980
61 -0.000003255335641
62 0.000121104688532
63 0.000114293762225
64 -0.000010493922076
65 -0.000093663690476
66 0.000813093950274
67 -0.000008199185087
68 -0.000009114403157
69 0.000001996529903
70 -0.000321998955878
71 -0.000380656168656
72 -0.000083120886482
73 -0.000000128377867
74 0.000001376527979
75 -0.000066883153007
76 -0.000001079200313
77 -0.000003144317047
78 -0.000000643592169
79 0.000050535057777
80 0.000057952010762
81 0.000000890644037
82 -0.000012060426143
83 -0.000036775702469
84 0.000111150835998
85 0.000003373798600
86 -0.000001753575854
87 0.000002479898863
88 0.000012160198582
89 0.000013516139770
90 -0.000033143487440
91 -0.000050658828385
92 -0.000027977956865
93 -0.000083316687954
94 -0.000243506452452
95 -0.000078259899557
96 -0.000202808732740
97 0.000036388707396
98 0.000034403861057
99 0.000015018949693
100 0.000115203588533
101 -0.000034400075411
102 -0.000023680486810
103 -0.000027791570513
104 -0.000320745658341
105 -0.000035407984132
106 -0.000238422899356
107 0.000306859649321
108 0.000549246547002
109 -0.000360598851042
110 -0.000328662019643
 Sym=      2.1
 Ene=     -20.4518
 Spin= Alpha
 Occup=    2.000000
1 -0.000059992059328
2 -0.000707584335376
3 0.003276260805041
4 -0.000029015623764
5 -0.000113830647059
6 -0.000127113206668
7 -0.000815010820755
8 0.001359176968816
9 0.003297801432487
10 0.000017605368024
11 0.000087275194883
12 -0.002110491034403
13 -0.000080858518489
14 0.000000102918057
15 -0.000002757122786
16 -0.000401217404077
17 0.001129150967231
18 -0.000764828193116
19 -0.000020292302112
20 -0.000157084334993
21 0.001249294590634
22 0.000021145578535
23 0.000002044182003
24 0.000020136188249
25 0.000281926005142
26 0.000495428841388
27 0.000092649185025
28 0.000005570639779
29 0.000039403394279
30 -0.000292061262079
31 0.000003530431746
32 0.000006258980125
33 -0.000001471138969
34 -0.000435211374626
35 -0.000172957304790
36 0.000042297583280
37 -0.000000612065949
38 -0.000008253120796
39 0.000134038971309
40 0.000008773998179
41 0.000002282444147
42 0.000003575131111
43 0.000026022459802
44 -0.000050265941152
45 -0.000019078454159
46 0.000002282632347
47 0.000023958752507
48 -0.000244974985616
49 -0.000006044558336
50 0.000007257674082
51 0.000002874198706
52 -0.000015932413210
53 -0.000116641295467
54 -0.000009902403218
55 0.000009149350064
56 0.000049761365237
57 -0.001184368291718
58 -0.000046107586749
59 -0.000035154904303
60 0.000030978099667
61 0.000793114015162
62 -0.000532744767969
63 0.000124789091810
64 0.000162985702235
65 0.000265781506696
66 0.005436418834382
67 -0.000035483331171
68 -0.000022189867178
69 0.000008590967547
70 0.004750869902130
71 0.000386461532983
72 -0.007352859110558
73 0.99586236777446
74 0.023427733259029
75 -0.015381212338507
76 -0.001393631986453
77 -0.000353862561990
78 0.001837317754757
79 0.002818718789177
80 0.000527734959930
81 -0.003986606228669
82 -0.003242648232398
83 -0.000560256098855
84 0.002024210658387
85 0.000060826606613
86 0.000105237525226
87 0.000070699333871
88 -0.000990228051264
89 -0.000915760089241
90 0.000152777121659
91 0.000127643428598
92 0.001137459049730
93 0.000032718464573
94 -0.000649438665455
95 0.000048212345255
96 0.000393233287669
97 -0.000015738240775
98 -0.000503795704041
99 0.000110696986191
100 0.000135821462886
101 0.000017572288645
102 0.000297592902168
103 -0.000051369835926
104 -0.000004935072695
105 -0.000037547485766
106 0.000047858508353
107 0.000026191937229
108 0.000007727050368
109 -0.000016585832842
110 -0.000009139959637
 Sym=      3.1
 Ene=     -20.4402
 Spin= Alpha
 Occup=    2.000000
1 -0.000069360334593
2 -0.000745946814959
3 0.004039212432911
4 -0.000252556609788
5 -0.000245065688517
6 0.000052318698891
7 0.002185202725125
8 0.001274730048174
9 -0.002292566016019
10 0.000033939801499
11 0.000275818388139
12 -0.000578476065115
13 0.000065504840828
14 0.000015637990613
15 -0.000059596142376
16 -0.000894129685508
17 -0.000744054722250
18 0.000920526302152
19 0.000004224287457
20 0.000009157105414
21 -0.000887943258793
22 -0.000077527168531
23 0.000018672387035
24 0.000035743957180
25 0.000649880976542
26 -0.000516167871372
27 -0.000486933373819
28 -0.000009862276173
29 -0.000075155032466
30 0.000887986921004
31 0.000032463236960
32 0.000017216618130
33 0.000003287937307
34 0.000233640955148
35 -0.000687995203323
36 0.000007340998148
37 0.000007686089955
38 -0.000045212064990
39 0.000289101033478
40 0.000012398382744
41 0.000002785673634
42 0.000004401406155
43 -0.000054753100267
44 -0.000066386675008
45 -0.000025831721397
46 0.000004706674023
47 0.000050623340479
48 -0.000398419654169
49 0.000002612580327
50 -0.000008931582129
51 -0.000001888948130
52 -0.000245689465332
53 0.000091389278269
54 0.000021787185255
55 0.000016549699738
56 0.000192289918566
57 -0.000064731008058
58 0.000072331478979
59 0.000056031993841
60 -0.000019152726124
61 -0.000967552772642
62 -0.000376566733470
63 0.000096585904766
64 0.000117533983843
65 -0.000014507906284
66 0.003814685019929
67 0.000095738798014
68 0.000094221501218
69 0.000021829613306
70 0.001440797468304
71 0.005678091594213
72 0.006812704720291
73 0.003209125170185
74 -0.000414629464766
75 0.001996490748534
76 0.000091428253489
77 0.000072062302110
78 -0.000047812039410
79 -0.000989013219273
80 -0.001175200298003
81 -0.000197504790671
82 0.99588633516650
83 0.023234758338456
84 -0.014823327554695
85 -0.000462465040223
86 -0.001520382145383
87 -0.001582145595731
88 0.000756070123416
89 0.003105020623711
90 0.003756702308494
91 -0.000410157928004
92 -0.000432034859839
93 0.000192470351360
94 0.000520012926740
95 -0.000049446055000
96 -0.000022216699739
97 0.000215885800746
98 0.000195198430239
99 -0.000102602932291
100 -0.000361852368234
101 0.000026297932065
102 0.000096975951256
103 0.000023536695353
104 0.000060891186358
105 -0.000037911165248
106 -0.000267282955111
107 -0.000021751818733
108 -0.000041706075412
109 0.000046480594638
110 0.000053877659861
 Sym=      4.1
 Ene=     -15.7583
 Spin= Alpha
 Occup=    2.000000
1 -0.000001032753074
2 -0.000487056591891
3 0.003625882706412
4 0.000062784276176
5 -0.000158487486891
6 0.000132508373652
7 0.000330746148993
8 -0.001778704602091
9 0.001665331345439
10 -0.000028742431229
11 -0.000387659234218
12 0.000583476669845
13 -0.000097965097136
14 0.000170070468625
15 -0.000072501110385
16 -0.000106354819961
17 -0.000518028172139
18 0.000096823526652
19 0.000008409180197
20 -0.000015805733496
21 -0.000181767515958
22 -0.000047313061132
23 -0.000020825434738
24 -0.000092695553202
25 -0.000488287440539
26 -0.000022886560116
27 0.000527845533119
28 0.000001198374054
29 0.000002377563877
30 -0.000137948936537
31 0.000001824306890
32 0.000017288871535
33 0.000006265325336
34 -0.000322545610444
35 -0.000066546146960
36 -0.000114398515151
37 -0.000000397323287
38 -0.000009727900232
39 0.000062012974408
40 -0.000006108423988
41 0.000001124237424
42 -0.000012478419842
43 0.000064638383712
44 -0.000014087693952
45 0.000055363741168
46 0.000008069929868
47 0.000041316924333
48 -0.000235415833784
49 0.000007193103705
50 0.000001085775087
51 -0.000007824112712
52 -0.000103784669026
53 -0.000052981039117
54 0.000061859279467
55 0.99605041664555
56 0.024407566124820
57 -0.014502301470352
58 -0.000031451047916
59 -0.000177937997367
60 0.000059498557351
61 0.000341250376522
62 -0.000642082010834
63 0.001035463107895
64 -0.000026093728313
65 -0.000359939834552
66 0.000697087585481
67 0.000123794167223
68 0.000152690717295
69 -0.000048646871115
70 -0.000574948788742
71 -0.000115947782409
72 0.000380548427632
73 -0.000003312403539
74 -0.000027823637410
75 0.000269108495983
76 0.000006132019946
77 -0.000034172850394
78 0.000021045160668
79 -0.000043377953606
80 0.000089284367486
81 -0.000012514667935
82 0.000007663408887
83 0.000137479791420
84 -0.000526468367607
85 -0.000036128590352
86 -0.000003764996229
87 0.000008506688560
88 0.000250553816322
89 0.000218161778599
90 0.000003525749915
91 -0.000230381820319
92 -0.000238191738400
93 -0.000035094815375
94 0.000420170504324
95 -0.000018141571931
96 -0.000226886899056
97 0.000353655420781
98 0.001822204330121
99 0.000262425676871
100 0.002262947863109
101 0.000316288619466
102 0.001849135490073
103 0.000008825998027
104 -0.000532476370869
105 0.000115707582009
106 0.000097277463922
107 0.000003042855831
108 -0.000034195870664
109 0.000004595780857
110 0.000000949512923
 Sym=      5.1
 Ene=     -15.6160
 Spin= Alpha
 Occup=    2.000000
1 -0.000018232053964
2 -0.000143126878708
3 0.001294829167367
4 -0.000064605999430
5 -0.000027402680990
6 -0.000002876638700
7 -0.000210084445718
8 0.000580889243318
9 0.000120929398746
10 -0.000020529088144
11 -0.000202919599084
12 -0.000233984909540
13 0.000171032603019
14 0.000022490875546
15 -0.000020597422450
16 -0.001447604844534
17 0.000453473530830
18 0.000181890606980
19 -0.000013950143484
20 -0.000239038186078
21 0.000631334668181
22 0.000039844813055
23 0.000042772663331
24 -0.000007479018519
25 0.000430395044424
26 0.000563761800393
27 0.000020993021080
28 0.000064906736535