[Molden Format]
[Molpro variables]
_NUMVAR=  809.0000000000000    
_AVOGAD= 0.6022136736000000E+24
_BOLTZ= 0.1380658000000000E-22
_CLIGHT=  29979245800.00000    
_EV2006= 0.3674930886769165E-01
_EV= 0.3674932534394180E-01
_ENULL= 0.8854187817000000E-11
_KJOULE= 0.3808798324128737E-03
_KJOULE/MOL= 0.3808798324128737E-03
_CM= 0.4556335267302901E-05
_CM-1= 0.4556335267302901E-05
_DEB2SI= 0.3335641000000000E-29
_AMU2AU=  1822.888390000000    
_KCAL= 0.1593601117815568E-02
_KCAL/MOL= 0.1593601117815568E-02
_KELVIN2006= 0.3166828861084835E-05
_KELVIN= 0.3166814820820034E-05
_JOULE= 0.4359748200000000E-17
_HERTZ2006= 0.1519829850815779E-15
_HERTZ= 0.1519829846011223E-15
_HZ2006= 0.1519829850815779E-15
_HZ= 0.1519829846011223E-15
_JPCAL=  4.184000000000000    
_PLANCK= 0.6626075540000000E-33
_TOA2006= 0.5291772490000000    
_TOA= 0.5291772090000000    
_TOANG2006= 0.5291772490000000    
_TOANG= 0.5291772090000000    
_TORAD= 0.1745329251994330E-01
_TOCM=  219474.6306700000    
_TODEBYE=  2.541580000000000    
_TOEV2006=  27.21139610000000    
_TOE= 0.4803242000000000E-09
_TOEV=  27.21138390000000    
_TOHERTZ2006=  6579683899900000.    
_TOHERTZ=  6579683920700000.    
_TOHZ2006=  6579683899900000.    
_TOHZ=  6579683920700000.    
_TOK2006=  315773.3000000000    
_TOK=  315774.7000000000    
_TOKCAL=  627.5096000000000    
_TOKELVIN2006=  315773.3000000000    
_TOKELVIN=  315774.7000000000    
_TOKJ=  2625.500000000000    
_TOKJOULE=  2625.500000000000    
_TOKG= 0.1660565586000000E-26
_ANG2006=  1.889725988578923    
_ANG=  1.889726131421507    
_ANGSTROM2006=  1.889725988578923    
_ANGSTROM=  1.889726131421507    
_RPAREF=  0.000000000000000    
_RPADISS=  0.000000000000000    
_IGNORE_UNDEF=  2.000000000000000    
_STRICTCHECK=  0.000000000000000    
_SEW_ONEEL=  0.000000000000000    
_CPPDONE=FALSE
_DKROLL_DONE=  0.000000000000000    
_FOCKDONE=TRUE
_GRADONE=FALSE
_HESSDONE=FALSE
_INTDONE=TRUE
_SCFDONE=TRUE
_MODUL_BLOCK=FALSE
_MODUL_CUDA=FALSE
_MODUL_SLATER=FALSE
_MODUL_MRCC=FALSE
_MODUL_NBO6=FALSE
_MODUL_NECI=TRUE
_MODUL_AIMS=TRUE
_MRCC_EXEC=
_FITC_AO_SAVED=FALSE
_FITC_MO_SAVED=FALSE
_SHARED_FS=TRUE
_LSTYP=SEWARD
_INTYP=INTS
_GEOMTYP=ZMAT
_GRADTYP=ALASKA
_DIRECT=FALSE
_DKHO= -1.000000000000000    
_SYNCM=  0.000000000000000    
_BASIS=$BSET
_ZORIENT=  1.000000000000000    
_NELEC=  40.00000000000000    
!SPIN=  0.000000000000000    
_QSDSTEP=  0.000000000000000    
_QSDIRC=  0.000000000000000    
_PROGRAM=HF-SCF
_CPUSTEP= 0.1400000000000000    
_SYSSTEP= 0.1000000000000001E-01
_WALLSTEP= 0.1500000000000000    
!DFSCF=  0.000000000000000    
!SCSGRD=  0.000000000000000    
_BASINP=  610.0000000000000    
_CPUTOT= 0.5700000000000000    
_CPUSORT= 0.6000000000000000E-01
_SYSSORT= 0.3999999999999999E-01
_WALLSORT= 0.1000000014901161    
_DFTEXFAC=  1.000000000000000    
_DMX= -4.548472852358017    
_DMY= -1.740160003564782    
_DMZ=  1.897639704241321    
_DMX_SCF= -4.548472852358017    
_DMY_SCF= -1.740160003564782    
_DMZ_SCF=  1.897639704241321    
_EHOMO=-0.3267384457326271    
_ELUMO= 0.1111595806925355    
_ENERGY= -282.6299169886537    
_ENUC=  180.6017118239405    
_GRADEXFAC=  9999.000000000000    
_GRADMETHOD=  1.000000000000000    
_NMRMETHOD=  0.000000000000000    
!GRID_FREEZE= -1.000000000000000    
_ITERATIONS=  11.00000000000000    
_LASTNELEC=  40.00000000000000    
_LASTSPIN=  0.000000000000000    
_LASTSYM=  1.000000000000000    
_MPP_PROG=  0.000000000000000    
_NPROC_MPP=  1.000000000000000    
_NPROC_MPPX=  1.000000000000000    
_NPROC_SMP=  1.000000000000000    
_NUMSTEP=  0.000000000000000    
_ORBITAL=  2100.200000000000    
_PI=  3.141592653589793    
_SEIG_MIN= 0.5406732446906095E-02
_SEWPROP=TRUE
_STATUS=  1.000000000000000    
_SYSTOT= 0.6000000000000000E-01
_VERSION=  2012001.000000000    
_WALLTOT= 0.6300000000000000    
_DATE=23-Sep-15
_LASTORB=RHF
_MACHINE=Linux-3.2.0-90-generic/sce-chem-c01105(x86_64) 64 bit serial version
_OUTPUT=/home/s1267651/phd_mini_19Sept2015/protein/molpro2/glycine_6-31g_scf.xml
_PGROUP=C1
_TIME=17:57:09
_LIBMOL=/usr/local/molpro/molprop_2012_1_Linux_x86_64_i8/lib/
!VIBCNT=  0.000000000000000    
!RGHFCNT=  0.000000000000000    
!SURFREC=  0.000000000000000    
!POLYREC=  0.000000000000000    
!DIPREC=  0.000000000000000    
!VSCFREC=  0.000000000000000    
!VCIREC=  0.000000000000000    
!PVCIREC=  0.000000000000000    
!VMP2REC=  0.000000000000000    
!VMCSCFREC=  0.000000000000000    
!VMRCIREC=  0.000000000000000    
!VIBINFO=  0.000000000000000    
!GAREC=  0.000000000000000    
!SCFORB=  21002.00000000000    
!NEWMOL= -1.000000000000000    
!NEWSYM= -1.000000000000000    
_SLFILES=slscratch
_NGSSTO=  9.000000000000000    
_SIN=SIN
_COS=COS
_TAN=TAN
_ACOS=ACOS
_ASIN=ASIN
_ATAN=ATAN
_COSH=COSH
_SINH=SINH
_TANH=TANH
_ABS=ABS
_MOD=MOD
_ERF=ERF
_REFC=REFC
_ERFC=ERFC
_HYPOT=HYPOT
_J0=J0
_J1=J1
_JN=JN
_GAMMA=GAMMA
_LGAMMA=LGAMMA
_Y0=Y0
_Y1=Y1
_YN=YN
_EXP=EXP
_LOG=LOG
_LOG10=LOG10
_SQRT=SQRT
_INT=INT
_NINT=NINT
_MAX=MAX
_MIN=MIN
_COSMO=  0.000000000000000    
_COSMOIT=  0.000000000000000    
_COSMOES=  0.000000000000000    
_COSMOEDS=  0.000000000000000    
_COSMOEC=  0.000000000000000    
_COSMOEDCORR=  0.000000000000000    
_FEPSI=  1.000000000000000    
_SL_IsMM=  0.000000000000000    
_SL_NSYM=  1.000000000000000    
_SL_System_BitSw=  0.000000000000000    
_SL_Unique_atoms=  0.000000000000000    
_SL_GRAD=  0.000000000000000    
_SL_MAXUPD_Hess=  5.000000000000000    
_SL_N_PRINT_COD=  5.000000000000000    
_SL_PRINT_CODES=  0.000000000000000    
_SL_BasType=  0.000000000000000    
_SL_Energy_Pred=  0.000000000000000    
_SL_New_Coords=  0.000000000000000    
_SL_Total_Nuclea=  0.000000000000000    
_SL_Highest_Mltp=  0.000000000000000    
_SL_Ref_Geom=  0.000000000000000    
_SL_Symmetry_ope=  1.000000000000000    
_SL_agrad=  0.000000000000000    
_SL_GrdMax=  0.000000000000000    
_SL_GrdNorm=  0.000000000000000    
_SL_GrdRMS=  0.000000000000000    
_SL_Hss_Q=  0.000000000000000    
_SL_Hss_X=  0.000000000000000    
_SL_BMxOld=  0.000000000000000    
_SL_KtB=  0.000000000000000    
!LATTICE= -1.000000000000000    
!NEWLATTICE=  0.000000000000000    
!LATGRAD_VAR=FALSE
!SEW_LATTICE=  1.000000000000000    
!LOCAL=  0.000000000000000    
!SAVEDOM= -1.000000000000000    
!RESTDOM= -1.000000000000000    
!SAVEDOM_HF= -1.000000000000000    
!RESTDOM_HF= -1.000000000000000    
!HESSREC=  0.000000000000000    
!FREQREC=  0.000000000000000    
!NMODREC=  0.000000000000000    
!GTASKS=  0.000000000000000    
!HTASKS=  0.000000000000000    
!THRCHG= 0.1000000000000000    
!DEBUG= -1.000000000000000    
!CFIT_CPHF=  0.000000000000000    
!RDOMAUX_CPHF=  3.000000000000000    
!THRAO_CPHF= 0.1000000000000000E-09
!THRMO_CPHF= 0.1000000000000000E-08
!THROV_CPHF= 0.1000000000000000E-11
!THRSW_CPHF= 0.1000000000000000E-09
!THRPROD_CPHF= 0.1000000000000000E-08
!THRAOPR_CPHF= 0.1000000000000000E-11
!CFIT_SCFGRD=  0.000000000000000    
!RDOMAUX_SCFGRD=  5.000000000000000    
!THRAO_SCFGRD= 0.1000000000000000E-09
!THRMO_SCFGRD= 0.1000000000000000E-08
!THROV_SCFGRD= 0.1000000000000000E-11
!THRSW_SCFGRD= 0.1000000000000000E-09
!THRPROD_SCFGRD= 0.1000000000000000E-08
!THRAOPR_SCFGRD= 0.1000000000000000E-11
!LOCFIT_SCF=  0.000000000000000    
!LOCFIT_MP2= -1.000000000000000    
_RIDOM=  0.000000000000000    
!CC2_METHOD=  0.000000000000000    
_BASIS2006=FALSE
_SVDDEL= -1.000000000000000    
_SVDDELA= -1.000000000000000    
_SVDDELP= -1.000000000000000    
_SVDDELF= -1.000000000000000    
_SVDDELS= -1.000000000000000    
_SVDDEL_ABS= -1.000000000000000    
_SVDDELA_ABS= -1.000000000000000    
_SVDDELP_ABS= -1.000000000000000    
_SVDDELF_ABS= -1.000000000000000    
_SVDDELS_ABS= -1.000000000000000    
_MAXBASIS=  0.000000000000000    
!OPT_CONICAL=  0.000000000000000    
!CLEARSP_JGRID=  0.000000000000000    
_4EXT_NDISKS=  1.000000000000000    
!ZMP=  0.000000000000000    
_MAXIT_ZMP=  500.0000000000000    
_MAXDIS_ZMP=  100.0000000000000    
_ACCU_ZMP=  14.00000000000000    
_SHIFTA_ZMP= -100.0000000000000    
!EMBEDFLAG=  1.000000000000000    
!EMBED=FALSE
!EMBED_F12=FALSE
!EMBEDNUC=  0.000000000000000    
_EMBEDENERGY=  0.000000000000000    
_KSPACETIME=  0.000000000000000    
_RSPACETIME=  0.000000000000000    
!EMBED_DFC=FALSE
!NUM_VOIDS=  0.000000000000000    
_IBODY=  0.000000000000000    
_EMBE_TOTAL=  0.000000000000000    
_EMBE_HF=  0.000000000000000    
_EMBE_CORR=  0.000000000000000    
!EDFT=  0.000000000000000    
_IFASTLATGRAD=  0.000000000000000    
_SINDEX=  0.000000000000000    
TITLE=GLYCINE
BSET=6-31G
GX1= 0.6600000000000000E-01
GY1=-0.1810000000000000    
GZ1= 0.8550000000000000    
GX2= -1.335000000000000    
GY2= 0.1730000000000000    
GZ2= 0.4690000000000000    
GX3=  1.036000000000000    
GY3= 0.6000000000000000    
GZ3= 0.2000000000000000E-02
GX4=  2.237000000000000    
GY4= 0.4570000000000000    
GZ4= 0.1580000000000001    
GX5= 0.6010000000000002    
GY5=  1.407000000000000    
GZ5=-0.8770000000000000    
GX6= 0.2250000000000001    
GY6= -1.247000000000000    
GZ6= 0.7030000000000000    
GX7= 0.2250000000000001    
GY7= 0.6300000000000000E-01
GZ7=  1.903000000000000    
GX8= -2.000000000000000    
GY8=-0.3630000000000000    
GZ8=  1.053000000000000    
GX9= -1.487000000000000    
GY9=  1.186000000000000    
GZ9= 0.6140000000000000    
GX10= -1.487000000000000    
GY10=-0.6000000000000000E-01
GZ10=-0.5280000000000000    
STR=../input/GLYCINE_6-31G_scf.mld
[Atoms] Angs
C     1    6         0.0660000000       -0.1810000000        0.8550000000
N     2    7        -1.3350000000        0.1730000000        0.4690000000
C     3    6         1.0360000000        0.6000000000        0.0020000000
O     4    8         2.2370000000        0.4570000000        0.1580000000
O     5    8         0.6010000000        1.4070000000       -0.8770000000
H     6    1         0.2250000000       -1.2470000000        0.7030000000
H     7    1         0.2250000000        0.0630000000        1.9030000000
H     8    1        -2.0000000000       -0.3630000000        1.0530000000
H     9    1        -1.4870000000        1.1860000000        0.6140000000
H    10    1        -1.4870000000       -0.0600000000       -0.5280000000
[GTO]
  1 0
 s    6  1.00
  0.3047524900D+04  0.1834737091D-02
  0.4573695200D+03  0.1403732293D-01
  0.1039486800D+03  0.6884262165D-01
  0.2921015500D+02  0.2321844388D+00
  0.9286663000D+01  0.4679413476D+00
  0.3163927000D+01  0.3623119882D+00
 s    3  1.00
  0.7868272300D+01 -0.1193324245D+00
  0.1881288500D+01 -0.1608541561D+00
  0.5442492600D+00  0.1143456443D+01
 s    1  1.00
  0.1687144800D+00  0.1000000000D+01
 p    3  1.00
  0.7868272300D+01  0.6899906693D-01
  0.1881288500D+01  0.3164239597D+00
  0.5442492600D+00  0.7443082892D+00
 p    1  1.00
  0.1687144800D+00  0.1000000000D+01
  
  2 0
 s    6  1.00
  0.4173511500D+04  0.1834772199D-02
  0.6274579100D+03  0.1399462699D-01
  0.1429020900D+03  0.6858655195D-01
  0.4023432900D+02  0.2322408698D+00
  0.1282021300D+02  0.4690699496D+00
  0.4390437000D+01  0.3604551997D+00
 s    3  1.00
  0.1162636200D+02 -0.1149611854D+00
  0.2716279800D+01 -0.1691174879D+00
  0.7722184000D+00  0.1145851954D+01
 s    1  1.00
  0.2120315000D+00  0.1000000000D+01
 p    3  1.00
  0.1162636200D+02  0.6757974372D-01
  0.2716279800D+01  0.3239072986D+00
  0.7722184000D+00  0.7408951369D+00
 p    1  1.00
  0.2120315000D+00  0.1000000000D+01
  
  3 0
 s    6  1.00
  0.3047524900D+04  0.1834737091D-02
  0.4573695200D+03  0.1403732293D-01
  0.1039486800D+03  0.6884262165D-01
  0.2921015500D+02  0.2321844388D+00
  0.9286663000D+01  0.4679413476D+00
  0.3163927000D+01  0.3623119882D+00
 s    3  1.00
  0.7868272300D+01 -0.1193324245D+00
  0.1881288500D+01 -0.1608541561D+00
  0.5442492600D+00  0.1143456443D+01
 s    1  1.00
  0.1687144800D+00  0.1000000000D+01
 p    3  1.00
  0.7868272300D+01  0.6899906693D-01
  0.1881288500D+01  0.3164239597D+00
  0.5442492600D+00  0.7443082892D+00
 p    1  1.00
  0.1687144800D+00  0.1000000000D+01
  
  4 0
 s    6  1.00
  0.5484671700D+04  0.1831074396D-02
  0.8252349500D+03  0.1395017197D-01
  0.1880469600D+03  0.6844507786D-01
  0.5296450000D+02  0.2327143395D+00
  0.1689757000D+02  0.4701928990D+00
  0.5799635300D+01  0.3585208493D+00
 s    3  1.00
  0.1553961600D+02 -0.1107775519D+00
  0.3599933600D+01 -0.1480262626D+00
  0.1013761800D+01  0.1130767020D+01
 s    1  1.00
  0.2700058200D+00  0.1000000000D+01
 p    3  1.00
  0.1553961600D+02  0.7087426737D-01
  0.3599933600D+01  0.3397528370D+00
  0.1013761800D+01  0.7271585736D+00
 p    1  1.00
  0.2700058200D+00  0.1000000000D+01
  
  5 0
 s    6  1.00
  0.5484671700D+04  0.1831074396D-02
  0.8252349500D+03  0.1395017197D-01
  0.1880469600D+03  0.6844507786D-01
  0.5296450000D+02  0.2327143395D+00
  0.1689757000D+02  0.4701928990D+00
  0.5799635300D+01  0.3585208493D+00
 s    3  1.00
  0.1553961600D+02 -0.1107775519D+00
  0.3599933600D+01 -0.1480262626D+00
  0.1013761800D+01  0.1130767020D+01
 s    1  1.00
  0.2700058200D+00  0.1000000000D+01
 p    3  1.00
  0.1553961600D+02  0.7087426737D-01
  0.3599933600D+01  0.3397528370D+00
  0.1013761800D+01  0.7271585736D+00
 p    1  1.00
  0.2700058200D+00  0.1000000000D+01
  
  6 0
 s    3  1.00
  0.1873113700D+02  0.3349460400D-01
  0.2825394400D+01  0.2347269500D+00
  0.6401216900D+00  0.8137573301D+00
 s    1  1.00
  0.1612777600D+00  0.1000000000D+01
  
  7 0
 s    3  1.00
  0.1873113700D+02  0.3349460400D-01
  0.2825394400D+01  0.2347269500D+00
  0.6401216900D+00  0.8137573301D+00
 s    1  1.00
  0.1612777600D+00  0.1000000000D+01
  
  8 0
 s    3  1.00
  0.1873113700D+02  0.3349460400D-01
  0.2825394400D+01  0.2347269500D+00
  0.6401216900D+00  0.8137573301D+00
 s    1  1.00
  0.1612777600D+00  0.1000000000D+01
  
  9 0
 s    3  1.00
  0.1873113700D+02  0.3349460400D-01
  0.2825394400D+01  0.2347269500D+00
  0.6401216900D+00  0.8137573301D+00
 s    1  1.00
  0.1612777600D+00  0.1000000000D+01
  
 10 0
 s    3  1.00
  0.1873113700D+02  0.3349460400D-01
  0.2825394400D+01  0.2347269500D+00
  0.6401216900D+00  0.8137573301D+00
 s    1  1.00
  0.1612777600D+00  0.1000000000D+01
 
 
[MO]
 Sym=      1.1
 Ene=     -20.4514
 Spin= Alpha
 Occup=    2.000000
1 -0.000016398491059
2 -0.000344705496639
3 0.001139567074412
4 -0.000061286287926
5 0.000029101151242
6 -0.000031331660764
7 -0.001050375606727
8 0.000411387240520
9 -0.000451978194648
10 -0.000013164201007
11 -0.000186425405303
12 -0.000240568483095
13 -0.000152415570465
14 -0.000057400754940
15 0.000062558824416
16 0.000595304761919
17 0.000646076177994
18 -0.000703287476805
19 0.000139673895464
20 0.000230888506311
21 0.005573623946346
22 -0.000092049821066
23 -0.000023195204833
24 0.000025168707689
25 0.007549621778859
26 -0.001608121536186
27 0.001753966085921
28 0.98844996917730
29 0.023201774903882
30 -0.014759353203208
31 -0.002362264949412
32 0.000138986180659
33 -0.000152057847083
34 0.004790529257627
35 -0.000379740039814
36 0.000414723280141
37 -0.12130236182516
38 -0.003173688246739
39 0.002938348358925
40 -0.000069021229431
41 0.000269846231750
42 -0.000293708174569
43 -0.000681357435311
44 -0.000845890694720
45 0.000920385896405
46 0.000016098064630
47 -0.000223431637033
48 0.000016423074671
49 -0.000221036032385
50 0.000213768018633
51 0.000417218182685
52 -0.000148911707452
53 -0.000002474240044
54 -0.000148738235397
55 -0.000000655524849
 Sym=      2.1
 Ene=     -20.4511
 Spin= Alpha
 Occup=    2.000000
1 -0.000001863756104
2 -0.000212535682109
3 0.000925347602343
4 -0.000052622557006
5 -0.000085915490835
6 0.000093975592635
7 0.002272623312155
8 -0.000326943907558
9 0.000352264581202
10 -0.000021133945842
11 -0.000297488700354
12 0.001333310288244
13 -0.000099417018477
14 -0.000040094194397
15 0.000043544922437
16 0.000698400306412
17 -0.000171858122975
18 0.000189153292292
19 0.000134133219720
20 0.000141038693662
21 0.005630076210990
22 -0.000086672836359
23 0.000017242950371
24 -0.000018826896173
25 -0.001462618424610
26 0.004490458099891
27 -0.004891432287093
28 0.12128104998599
29 0.002469185639459
30 -0.000535884530987
31 -0.000171326811249
32 0.000050447611781
33 -0.000054832569224
34 0.000056099134458
35 -0.000820909061972
36 0.000893579821788
37 0.98846114096403
38 0.022794748196203
39 -0.013402495048229
40 0.000452154002523
41 -0.001444663555932
42 0.001573360656199
43 -0.001547249671596
44 0.002847125212075
45 -0.003100804200834
46 -0.000051189429331
47 -0.000231301260213
48 -0.000050328025653
49 -0.000231397325656
50 -0.000107377410509
51 0.000233424820499
52 -0.000133970205317
53 0.000074736917918
54 -0.000133332640243
55 0.000074346388039
 Sym=      3.1
 Ene=     -15.7551
 Spin= Alpha
 Occup=    2.000000
1 -0.000027985707024
2 -0.000640831065468
3 0.005412803171641
4 -0.000198343795045
5 0.000045930228303
6 -0.000049786703516
7 -0.001867817738767
8 0.000757079163367
9 -0.000827450886323
10 0.99604643119093
11 0.024298146348588
12 -0.014245959669484
13 -0.000142128698105
14 -0.000080079473332
15 0.000086697845498
16 -0.001265834105517
17 0.000364943665778
18 -0.000395746826076
19 0.000003153321091
20 -0.000119884355413
21 -0.001671057296511
22 0.000068965305004
23 0.000011164794062
24 -0.000012311091691
25 0.000376024341535
26 0.000109781673969
27 -0.000120073961421
28 -0.000008702533033
29 -0.000164127277255
30 0.000557130666957
31 0.000015203153484
32 0.000016161840738
33 -0.000017645045438
34 -0.000301825751684
35 -0.000072661048573
36 0.000079400966328
37 -0.000003700216579
38 -0.000177187433481
39 0.000563453465029
40 0.000055591482971
41 0.000046513486102
42 -0.000050614608780
43 -0.000032720521266
44 -0.000255298769030
45 0.000277893118847
46 -0.000267374757828
47 -0.000269652742967
48 -0.000267200378947
49 -0.000268890706028
50 0.000293543996446
51 0.001929863397257
52 0.000328666948237
53 0.001810769003052
54 0.000330054375955
55 0.001809169130811
 Sym=      4.1
 Ene=     -11.3265
 Spin= Alpha
 Occup=    2.000000
1 0.99503757689798
2 0.026183482738681
3 -0.020554705431133
4 -0.001041400550331
5 0.000037419986670
6 -0.000040411117378
7 0.000192324208086
8 -0.001110271100526
9 0.001211100862891
10 -0.000083144910122
11 -0.000052550615160
12 0.002667401456813
13 -0.000099156269200
14 0.000063367665495
15 -0.000069026088495
16 0.001728897731353
17 -0.000526289564848
18 0.000573170484989
19 0.049681620017474
20 0.000470259208869
21 0.005183403908789
22 0.000003170339682
23 -0.000010697739996
24 0.000011507933861
25 -0.002914968778338
26 -0.001439439324911
27 0.001573318751801
28 -0.000025944396897
29 -0.000244605060727
30 0.000753032807624
31 0.000015904660178
32 0.000002173110630
33 -0.000002258710746
34 -0.000050614459390
35 0.000193454105392
36 -0.000211667416536
37 -0.000009684308190
38 -0.000109411585588
39 -0.000217990628257
40 -0.000020557050718
41 0.000033690817433
42 -0.000036733520142
43 0.000345072981652
44 0.000139103819966
45 -0.000151872280922
46 0.000186809063181
47 0.003292387354315
48 0.000186305691100
49 0.003296253587712
50 -0.000036289348006
51 0.000315598086875
52 0.000004147690502
53 0.000556138465065
54 0.000004120819830
55 0.000555036617099
 Sym=      5.1
 Ene=     -11.3204
 Spin= Alpha
 Occup=    2.000000
1 -0.049901845901724
2 -0.001965812995053
3 0.006531623491569
4 -0.000012074594543
5 -0.000130162696557
6 0.000142293639176
7 0.002127643446125
8 0.001926116349632
9 -0.002105018402612
10 -0.000007561534730
11 -0.000205532545035
12 -0.000148022211895
13 -0.000162632183144
14 -0.000028097679848
15 0.000030515802115
16 0.000487435337966
17 0.000216200015910
18 -0.000234257669917
19 0.99490612615786
20 0.024452560537227
21 -0.011042112701851
22 -0.000043059059581
23 -0.000188170999342
24 0.000206460940337
25 0.004066560783117
26 0.002761942579907
27 -0.003016511478711
28 -0.000345117318179
29 0.000400360682416
30 -0.001120382470685
31 -0.000340793929517
32 0.000109235548393
33 -0.000119266244585
34 0.000930047324718
35 -0.000793711520283
36 0.000866921203494
37 -0.000241104786729
38 0.000220213063143
39 -0.000318308303959
40 0.000151280234035
41 -0.000126789633054
42 0.000137897176964
43 -0.001164173300220
44 0.000250183745381
45 -0.000270590119900
46 -0.000210125535759
47 0.000378830979185
48 -0.000209887247478
49 0.000379796617254
50 0.000118948162286
51 0.000463750527767
52 -0.000136975432365
53 0.000094394762258
54 -0.000136958623818
55 0.000096241610826
 Sym=      6.1
 Ene=      -1.3845
 Spin= Alpha
 Occup=    2.000000
1 -0.067842223154638
2 0.13231420081790
3 0.043800170764927
4 -0.041053179298907
5 0.025766031441120
6 -0.028089718400100
7 0.008137575899708
8 -0.002827142856399
9 0.003123935601403
10 -0.15530720054861
11 0.32397341675201
12 0.37176739145129
13 0.012754435632493
14 -0.002874986477493
15 0.003173169221317
16 0.003530206888858
17 -0.008029422356825
18 0.008696654210020
19 -0.088939628385561
20 0.18570543953228
21 0.020597295665300
22 0.029107143293589
23 0.016429138639667
24 -0.017840482837982
25 -0.026973326009350
26 -0.015803405451992
27 0.017205919920369
28 -0.077018344140082
29 0.16781699451757
30 0.16694265386468
31 -0.069790800509511
32 0.008582250060319
33 -0.009348937237347
34 -0.027681890244044
35 0.006135558960080
36 -0.006685167239002
37 -0.071721321806245
38 0.15484567059028
39 0.15813340740391
40 0.017201613578679
41 -0.040598818231087
42 0.044236454262586
43 0.009434338174871
44 -0.018072829565791
45 0.019694356224842
46 0.024984077548867
47 -0.000121681528097
48 0.025012051104384
49 -0.000142480892989
50 0.082968660673813
51 -0.012894070425647
52 0.083427744515989
53 -0.010738696736836
54 0.083330283352543
55 -0.010734323815464
 Sym=      7.1
 Ene=      -1.3523
 Spin= Alpha
 Occup=    2.000000
1 0.020142338716737
2 -0.038616169313562
3 -0.013203904634826
4 0.065251138200911
5 0.003168476518722
6 -0.003484916193858
7 -0.014407333377818
8 0.000659803204043
9 -0.000703453808435
10 0.12447467375881
11 -0.25676898392926
12 -0.31555486055035
13 0.008907458046661
14 0.004233124755533
15 -0.004650543652682
16 -0.006161020350004
17 0.005576963207667
18 -0.006050376496560
19 -0.10648813807097
20 0.21931831755590
21 0.022737526125589
22 0.097621056154511
23 0.029672226837428
24 -0.032292157542502
25 -0.043836488111082
26 -0.021028244195137
27 0.022917161821072
28 -0.12455593014379
29 0.26851171280449
30 0.28126971758530
31 -0.10614581504373
32 0.014713163520884
33 -0.016033537107758
34 -0.046430102632197
35 0.006897290828739
36 -0.007518086688432
37 -0.084074591957983
38 0.18178947786545
39 0.18901440546135
40 0.032844242993382
41 -0.044443490503576
42 0.048418360297624
43 0.017742628148627
44 -0.021255570452704
45 0.023152169039758
46 -0.008091715750172
47 -0.000440570297026
48 -0.008105211295718
49 -0.000439085732241
50 -0.073090524940052
51 0.005500667430432
52 -0.066447680372228
53 0.007184971910032
54 -0.066367865756339
55 0.007167310257640
 Sym=      8.1
 Ene=      -1.2306
 Spin= Alpha
 Occup=    2.000000
1 0.004328764072296
2 -0.007732105128720
3 -0.013379553709773
4 -0.000415558658966
5 0.009390164624333
6 -0.010242224125481
7 -0.024446200464873
8 0.002555521651559
9 -0.002772319102362
10 0.017041168553210
11 -0.037464737919578
12 -0.052969863077856
13 0.011193140382542
14 0.005057115291547
15 -0.005519348318269
16 0.013784174254258
17 0.012587684072770
18 -0.013722929512362
19 -0.010745754777502
20 0.020732457056771
21 0.016819669216534
22 -0.20136354287379
23 0.12033617896165
24 -0.13110213021987
25 0.035133617387469
26 -0.032079869238272
27 0.034965470719175
28 0.13251405817898
29 -0.28552577292843
30 -0.31912574022553
31 0.087077349212845
32 0.003935479899914
33 -0.004281129626799
34 0.042666643794980
35 0.006865900944991
36 -0.007477405169050
37 -0.16602438830121
38 0.35611904995144
39 0.40966640481700
40 0.014341230503284
41 -0.068687533746121
42 0.074831710263734
43 0.002398833166169
44 -0.039820620771686
45 0.043376306215394
46 -0.004224010255508
47 -0.003343308836140
48 -0.004227307817779
49 -0.003329358578495
50 -0.013166411509191
51 0.005783247152668
52 -0.009920733019638
53 0.004144745063731
54 -0.009910896318241
55 0.004156490802718
 Sym=      9.1
 Ene=      -1.0290
 Spin= Alpha
 Occup=    2.000000
1 -0.17658862382261
2 0.33876461058131
3 0.39051000563360
4 0.032628789132666
5 0.002175664215133
6 -0.002210845208021
7 -0.014918141305787
8 0.006599015543435
9 -0.007272730659609
10 0.051211040221962
11 -0.10390952708213
12 -0.20347412622040
13 0.20547774610470
14 -0.047905088205362
15 0.052169713494249
16 0.084075105588239
17 -0.015200603607470
18 0.016609547424859
19 -0.033134438168654
20 0.077125690819903
21 0.022337027327404
22 -0.10933683978820
23 -0.081732550436259
24 0.089210632304392
25 0.010761767550744
26 -0.008758725939847
27 0.009568476818886
28 0.036877464057386
29 -0.080321169682610
30 -0.10412546403461
31 0.001565445522666
32 -0.021447939306846
33 0.023408026511340
34 0.003851965843623
35 -0.006042641128121
36 0.006594082138786
37 0.032863249347365
38 -0.073271828160311
39 -0.078611236747193
40 -0.023304893181048
41 -0.003957478643439
42 0.004346058002091
43 -0.005889635625286
44 -0.001503210695654
45 0.001636848629346
46 0.12125009286079
47 0.017476658359276
48 0.12144302373592
49 0.017528354885725
50 -0.072529611933750
51 -0.011285875372996
52 -0.067015470470624
53 -0.009913899638084
54 -0.066896085272461
55 -0.009902019296513
 Sym=     10.1
 Ene=      -0.8344
 Spin= Alpha
 Occup=    2.000000
1 -0.008618513244729
2 0.017763959466590
3 -0.001715827512205
4 -0.067807610070137
5 -0.10830762832443
6 0.10929351158938
7 -0.017861750678158
8 -0.046239033011157
9 0.048105071308096
10 0.005426000392748
11 -0.016624561508215
12 -0.013153709073922
13 -0.12908433656463
14 -0.31366841903810
15 0.31314018068246
16 -0.066997214303549
17 -0.19367559587332
18 0.19209439198281
19 0.026870474953471
20 -0.064266527519586
21 -0.024352093657362
22 0.064276768790530
23 0.048262227552264
24 -0.054362527497111
25 0.006316032760264
26 0.009817000925450
27 -0.011338845899170
28 -0.009324142620552
29 0.021234974901448
30 0.025401167265592
31 0.011863801583360
32 0.015012487661828
33 -0.017062536716090
34 0.007518918294864
35 0.006120481825632
36 -0.006934997406658
37 -0.027352121932270
38 0.060150625628546
39 0.077992783482069
40 0.042361693090877
41 0.016026309703891
42 -0.018495604121824
43 0.015472316047048
44 0.006352612786190
45 -0.007467909524667
46 0.048292814375545
47 0.019889606686978
48 0.043362142286008
49 0.017246193862800
50 0.23625760730299
51 0.079689580769782
52 -0.13738073743370
53 -0.030625375273652
54 -0.12015454159545
55 -0.026918138279239
 Sym=     11.1
 Ene=      -0.8320
 Spin= Alpha
 Occup=    2.000000
1 -0.000382372715224
2 0.000786283462360
3 0.000071359246977
4 -0.002764152943677
5 0.10764903939466
6 0.10752909350534
7 -0.000774917023660
8 0.028581560516861
9 0.030003220308592
10 0.000223087729090
11 -0.000634473957921
12 -0.000693954475138
13 -0.005304662584899
14 0.34071019974239
15 0.33661205890269
16 -0.002774142597274
17 0.22645537881608
18 0.22257034558261
19 0.001158539430743
20 -0.002757900051975
21 -0.001092860671330
22 0.002739047363312
23 0.023418614289301
24 0.017329346799847
25 0.000329134061047
26 0.008435362728034
27 0.006849430712807
28 -0.000401755337053
29 0.000918133061828
30 0.001072800724957
31 0.000515666270325
32 0.009331212986776
33 0.007255022270729
34 0.000328243274997
35 0.003539720456516
36 0.002729156896240
37 -0.001147325423592
38 0.002525450514087
39 0.003280921355307
40 0.001764193217038
41 0.013226408655074
42 0.010704264634395
43 0.000635496443643
44 0.006959784160447
45 0.005809274963884
46 -0.060744161671316
47 -0.032103971870074
48 0.064720584865323
49 0.033693698065164
50 0.009524643972891
51 0.003253410552292
52 0.20413689560026
53 0.045215046568225
54 -0.21455835893834
55 -0.047655379985957
 Sym=     12.1
 Ene=      -0.7309
 Spin= Alpha
 Occup=    2.000000
1 0.006736564906879
2 -0.015468819790479
3 -0.085510648290326
4 -0.31207169639193
5 -0.024362325991515
6 0.026742780125606
7 -0.060119112524054
8 -0.022824143879390
9 0.024961902482737
10 -0.019669909590271
11 0.038627971145703
12 0.10970909954532
13 0.41367217136298
14 -0.020674576979915
15 0.022348884581212
16 0.30964212107571
17 -0.022229127376297
18 0.024105236742242
19 0.082713915696405
20 -0.18349358819479
21 -0.14276802612503
22 0.086601602721950
23 0.094196070749878
24 -0.10283175277312
25 0.069755578458031
26 0.042237713425766
27 -0.046104155093601
28 -0.054078842514480
29 0.12643260111790
30 0.15493388805566
31 0.10126679144709
32 0.041615666823935
33 -0.045429665008254
34 0.054429727814250
35 0.015141872676797
36 -0.016526835531558
37 -0.028063055091902
38 0.064459722849044
39 0.086606945435450
40 0.012869966514053
41 0.043712959669249
42 -0.047679911932115
43 -0.005280185010380
44 0.021845377889426
45 -0.023812786483638
46 -0.024267129809203
47 -0.011356135711532
48 -0.024220878548093
49 -0.011321459100004
50 -0.13723223262488
51 -0.063312305965930
52 -0.027745603669770
53 -0.005423497420607
54 -0.027579042522597
55 -0.005376994814695
 Sym=     13.1
 Ene=      -0.6808
 Spin= Alpha
 Occup=    2.000000
1 0.035816390548145
2 -0.053931115723074
3 -0.22004898002531
4 -0.074025115260758
5 0.22992814568290
6 -0.25188652323944
7 0.026847093995343
8 0.091751686046572
9 -0.10065175896502
10 -0.015319827828359
11 0.026369877667355
12 0.11451966979831
13 0.15623459792498
14 -0.15531067561022
15 0.17035626488368
16 0.13861812903082
17 -0.11791377645707
18 0.12934647279161
19 -0.081550543031242
20 0.19236847187441
21 0.14319937778769
22 -0.094317108401674
23 -0.020852584774825
24 0.022585067295817
25 -0.081563599098812
26 -0.028730481209461
27 0.031311788994465
28 0.029627828439312
29 -0.069247973944822
30 -0.074210631533538
31 -0.079294064762842
32 0.002867047891708
33 -0.003255406169942
34 -0.046592636413463
35 0.010898592422110
36 -0.011983391883460
37 0.055700398366658
38 -0.12446778616391
39 -0.19999302684767
40 0.007056496499102
41 -0.096983177008877
42 0.10559596422976
43 0.015471631004803
44 -0.047605622833609
45 0.051811898487115
46 -0.15747680289822
47 -0.093852238267223
48 -0.15821160829615
49 -0.094158902497546
50 0.067276016055069