[Molden Format]
[Molpro variables]
_NUMVAR=  788.0000000000000    
_AVOGAD= 0.6022136736000000E+24
_BOLTZ= 0.1380658000000000E-22
_CLIGHT=  29979245800.00000    
_EV2006= 0.3674930886769165E-01
_EV= 0.3674932534394180E-01
_ENULL= 0.8854187817000000E-11
_KJOULE= 0.3808798324128737E-03
_KJOULE/MOL= 0.3808798324128737E-03
_CM= 0.4556335267302901E-05
_CM-1= 0.4556335267302901E-05
_DEB2SI= 0.3335641000000000E-29
_AMU2AU=  1822.888390000000    
_KCAL= 0.1593601117815568E-02
_KCAL/MOL= 0.1593601117815568E-02
_KELVIN2006= 0.3166828861084835E-05
_KELVIN= 0.3166814820820034E-05
_JOULE= 0.4359748200000000E-17
_HERTZ2006= 0.1519829850815779E-15
_HERTZ= 0.1519829846011223E-15
_HZ2006= 0.1519829850815779E-15
_HZ= 0.1519829846011223E-15
_JPCAL=  4.184000000000000    
_PLANCK= 0.6626075540000000E-33
_TOA2006= 0.5291772490000000    
_TOA= 0.5291772090000000    
_TOANG2006= 0.5291772490000000    
_TOANG= 0.5291772090000000    
_TORAD= 0.1745329251994330E-01
_TOCM=  219474.6306700000    
_TODEBYE=  2.541580000000000    
_TOEV2006=  27.21139610000000    
_TOE= 0.4803242000000000E-09
_TOEV=  27.21138390000000    
_TOHERTZ2006=  6579683899900000.    
_TOHERTZ=  6579683920700000.    
_TOHZ2006=  6579683899900000.    
_TOHZ=  6579683920700000.    
_TOK2006=  315773.3000000000    
_TOK=  315774.7000000000    
_TOKCAL=  627.5096000000000    
_TOKELVIN2006=  315773.3000000000    
_TOKELVIN=  315774.7000000000    
_TOKJ=  2625.500000000000    
_TOKJOULE=  2625.500000000000    
_TOKG= 0.1660565586000000E-26
_ANG2006=  1.889725988578923    
_ANG=  1.889726131421507    
_ANGSTROM2006=  1.889725988578923    
_ANGSTROM=  1.889726131421507    
_RPAREF=  0.000000000000000    
_RPADISS=  0.000000000000000    
_IGNORE_UNDEF=  2.000000000000000    
_STRICTCHECK=  0.000000000000000    
_SEW_ONEEL=  0.000000000000000    
_CPPDONE=FALSE
_DKROLL_DONE=  0.000000000000000    
_FOCKDONE=TRUE
_GRADONE=FALSE
_HESSDONE=FALSE
_INTDONE=TRUE
_SCFDONE=TRUE
_MODUL_BLOCK=FALSE
_MODUL_CUDA=FALSE
_MODUL_SLATER=FALSE
_MODUL_MRCC=FALSE
_MODUL_NBO6=FALSE
_MODUL_NECI=TRUE
_MODUL_AIMS=TRUE
_MRCC_EXEC=
_FITC_AO_SAVED=FALSE
_FITC_MO_SAVED=FALSE
_SHARED_FS=TRUE
_LSTYP=SEWARD
_INTYP=INTS
_GEOMTYP=ZMAT
_GRADTYP=ALASKA
_DIRECT=FALSE
_DKHO= -1.000000000000000    
_SYNCM=  0.000000000000000    
_BASIS=$BSET
_ZORIENT=  1.000000000000000    
_NELEC=  2.000000000000000    
!SPIN=  0.000000000000000    
_QSDSTEP=  0.000000000000000    
_QSDIRC=  0.000000000000000    
_PROGRAM=MULTI
_CPUSTEP= 0.4000000000000004E-01
_SYSSTEP=  0.000000000000000    
_WALLSTEP= 0.4000000000000000E-01
!DFSCF=  0.000000000000000    
!SCSGRD=  0.000000000000000    
_BASINP=  610.0000000000000    
_CPUTOT= 0.5200000000000000    
_DFTEXFAC=  1.000000000000000    
_DMX=  0.000000000000000    
_DMY=  0.000000000000000    
_DMZ=  0.000000000000000    
_DMX_SCF=  0.000000000000000    
_DMY_SCF=  0.000000000000000    
_DMZ_SCF=  0.000000000000000    
_EHOMO=-0.5968166544442171    
_ELUMO= 0.4715826847685432E-01
_ENERGY= -1.151829739938908    
_ENUC= 0.7211971162471741    
_GRADEXFAC=  9999.000000000000    
_GRADMETHOD=TRUE
_NMRMETHOD=  0.000000000000000    
!GRID_FREEZE= -1.000000000000000    
_ITERATIONS=  3.000000000000000    
_LASTNELEC=  2.000000000000000    
_LASTSPIN=  0.000000000000000    
_LASTSYM=  1.000000000000000    
_MPP_PROG=  0.000000000000000    
_NPROC_MPP=  1.000000000000000    
_NPROC_MPPX=  1.000000000000000    
_NPROC_SMP=  1.000000000000000    
_NUMSTEP=  0.000000000000000    
_ORBITAL=  2140.200000000000    
_PI=  3.141592653589793    
!MCACT=  1.000000000000000    
!MCCLOSED=  0.000000000000000    
!MCFREEZE=  0.000000000000000    
!MCMS2=  0.000000000000000    
!MCNEL=  2.000000000000000    
!MCNSTSYM=  1.000000000000000    
!MCSTATE=  1.000000000000000    
!MCSYM=  1.000000000000000    
!MCWEIGHT=  1.000000000000000    
_SEIG_MIN= 0.2930300491566709E-04
_SEWPROP=TRUE
_STATUS=  1.000000000000000    
_SYSTOT= 0.7000000000000001E-01
_VERSION=  2012001.000000000    
_WALLTOT= 0.6700000000000000    
_DATE=31-Aug-15
_LASTORB=MCSCF
_MACHINE=Linux-3.2.0-89-generic/sce-chem-c01105(x86_64) 64 bit serial version
_OUTPUT=/home/s1267651/phd_mini_31Aug2015/H2_1DFTs/molpro2/AB.xml
_PGROUP=D2h
_TIME=11:35:49
_LIBMOL=/usr/local/molpro/molprop_2012_1_Linux_x86_64_i8/lib/
!VIBCNT=  0.000000000000000    
!RGHFCNT=  0.000000000000000    
!SURFREC=  0.000000000000000    
!POLYREC=  0.000000000000000    
!DIPREC=  0.000000000000000    
!VSCFREC=  0.000000000000000    
!VCIREC=  0.000000000000000    
!PVCIREC=  0.000000000000000    
!VMP2REC=  0.000000000000000    
!VMCSCFREC=  0.000000000000000    
!VMRCIREC=  0.000000000000000    
!VIBINFO=  0.000000000000000    
!GAREC=  0.000000000000000    
!SCFORB=  21002.00000000000    
!MCORB=  21402.00000000000    
!NEWMOL= -1.000000000000000    
!NEWSYM= -1.000000000000000    
_SLFILES=slscratch
_NGSSTO=  9.000000000000000    
_SIN=SIN
_COS=COS
_TAN=TAN
_ACOS=ACOS
_ASIN=ASIN
_ATAN=ATAN
_COSH=COSH
_SINH=SINH
_TANH=TANH
_ABS=ABS
_MOD=MOD
_ERF=ERF
_REFC=REFC
_ERFC=ERFC
_HYPOT=HYPOT
_J0=J0
_J1=J1
_JN=JN
_GAMMA=GAMMA
_LGAMMA=LGAMMA
_Y0=Y0
_Y1=Y1
_YN=YN
_EXP=EXP
_LOG=LOG
_LOG10=LOG10
_SQRT=SQRT
_INT=INT
_NINT=NINT
_MAX=MAX
_MIN=MIN
_COSMO=  0.000000000000000    
_COSMOIT=  0.000000000000000    
_COSMOES=  0.000000000000000    
_COSMOEDS=  0.000000000000000    
_COSMOEC=  0.000000000000000    
_COSMOEDCORR=  0.000000000000000    
_FEPSI=  1.000000000000000    
_SL_IsMM=  0.000000000000000    
_SL_NSYM=  8.000000000000000    
_SL_System_BitSw=  0.000000000000000    
_SL_Unique_atoms=  0.000000000000000    
_SL_GRAD=  0.000000000000000    
_SL_MAXUPD_Hess=  5.000000000000000    
_SL_N_PRINT_COD=  5.000000000000000    
_SL_PRINT_CODES=  0.000000000000000    
_SL_BasType=  0.000000000000000    
_SL_Energy_Pred=  0.000000000000000    
_SL_New_Coords=  0.000000000000000    
_SL_Total_Nuclea=  0.000000000000000    
_SL_Highest_Mltp=  0.000000000000000    
_SL_Ref_Geom=  0.000000000000000    
_SL_Symmetry_ope=  1.000000000000000    
_SL_agrad=  0.000000000000000    
_SL_GrdMax=  0.000000000000000    
_SL_GrdNorm=  0.000000000000000    
_SL_GrdRMS=  0.000000000000000    
_SL_Hss_Q=  0.000000000000000    
_SL_Hss_X=  0.000000000000000    
_SL_BMxOld=  0.000000000000000    
_SL_KtB=  0.000000000000000    
!LATTICE= -1.000000000000000    
!NEWLATTICE=  0.000000000000000    
!LATGRAD_VAR=FALSE
!SEW_LATTICE=  1.000000000000000    
!LOCAL=  0.000000000000000    
!SAVEDOM= -1.000000000000000    
!RESTDOM= -1.000000000000000    
!SAVEDOM_HF= -1.000000000000000    
!RESTDOM_HF= -1.000000000000000    
!HESSREC=  0.000000000000000    
!FREQREC=  0.000000000000000    
!NMODREC=  0.000000000000000    
!GTASKS=  0.000000000000000    
!HTASKS=  0.000000000000000    
!THRCHG= 0.1000000000000000    
!DEBUG= -1.000000000000000    
!CFIT_CPHF=  0.000000000000000    
!RDOMAUX_CPHF=  3.000000000000000    
!THRAO_CPHF= 0.1000000000000000E-09
!THRMO_CPHF= 0.1000000000000000E-08
!THROV_CPHF= 0.1000000000000000E-11
!THRSW_CPHF= 0.1000000000000000E-09
!THRPROD_CPHF= 0.1000000000000000E-08
!THRAOPR_CPHF= 0.1000000000000000E-11
!CFIT_SCFGRD=  0.000000000000000    
!RDOMAUX_SCFGRD=  5.000000000000000    
!THRAO_SCFGRD= 0.1000000000000000E-09
!THRMO_SCFGRD= 0.1000000000000000E-08
!THROV_SCFGRD= 0.1000000000000000E-11
!THRSW_SCFGRD= 0.1000000000000000E-09
!THRPROD_SCFGRD= 0.1000000000000000E-08
!THRAOPR_SCFGRD= 0.1000000000000000E-11
!LOCFIT_SCF=  0.000000000000000    
!LOCFIT_MP2= -1.000000000000000    
_RIDOM=  0.000000000000000    
!CC2_METHOD=  0.000000000000000    
_BASIS2006=FALSE
_SVDDEL= -1.000000000000000    
_SVDDELA= -1.000000000000000    
_SVDDELP= -1.000000000000000    
_SVDDELF= -1.000000000000000    
_SVDDELS= -1.000000000000000    
_SVDDEL_ABS= -1.000000000000000    
_SVDDELA_ABS= -1.000000000000000    
_SVDDELP_ABS= -1.000000000000000    
_SVDDELF_ABS= -1.000000000000000    
_SVDDELS_ABS= -1.000000000000000    
_MAXBASIS=  0.000000000000000    
!OPT_CONICAL=  0.000000000000000    
!CLEARSP_JGRID=  0.000000000000000    
_4EXT_NDISKS=  1.000000000000000    
!ZMP=  0.000000000000000    
_MAXIT_ZMP=  500.0000000000000    
_MAXDIS_ZMP=  100.0000000000000    
_ACCU_ZMP=  14.00000000000000    
_SHIFTA_ZMP= -100.0000000000000    
!EMBEDFLAG=  1.000000000000000    
!EMBED=FALSE
!EMBED_F12=FALSE
!EMBEDNUC=  0.000000000000000    
_EMBEDENERGY=  0.000000000000000    
_KSPACETIME=  0.000000000000000    
_RSPACETIME=  0.000000000000000    
!EMBED_DFC=FALSE
!NUM_VOIDS=  0.000000000000000    
_IBODY=  0.000000000000000    
_EMBE_TOTAL=  0.000000000000000    
_EMBE_HF=  0.000000000000000    
_EMBE_CORR=  0.000000000000000    
!EDFT=  0.000000000000000    
_IFASTLATGRAD=  0.000000000000000    
_SINDEX=  0.000000000000000    
A=H
B=H
BSET=AUG-CC-PVQZ
R=  1.386583470000000    
GX1=  0.000000000000000    
GY1=  0.000000000000000    
GZ1=-0.6932917350000000    
GX2=  0.000000000000000    
GY2=  0.000000000000000    
GZ2= 0.6932917350000000    
METH=MULTI
STR=../input/HH_AUG-CC-PVQZ_MULTI.mld
[Atoms] Angs
H     1    1         0.0000000000        0.0000000000       -0.3668741854
H     2    1         0.0000000000        0.0000000000        0.3668741854
[GTO]
  1 0
 s    6  1.00
  0.8264000000D+02  0.2006000801D-02
  0.1241000000D+02  0.1534300612D-01
  0.2824000000D+01  0.7557903017D-01
  0.7977000000D+00  0.2568751025D+00
  0.2581000000D+00  0.4973681985D+00
  0.8989000000D-01  0.2961331182D+00
 s    6  1.00
  0.8264000000D+02  0.0000000000D+00
  0.1241000000D+02  0.0000000000D+00
  0.2824000000D+01  0.0000000000D+00
  0.7977000000D+00  0.1000000000D+01
  0.2581000000D+00  0.0000000000D+00
  0.8989000000D-01  0.0000000000D+00
 s    6  1.00
  0.8264000000D+02  0.0000000000D+00
  0.1241000000D+02  0.0000000000D+00
  0.2824000000D+01  0.0000000000D+00
  0.7977000000D+00  0.0000000000D+00
  0.2581000000D+00  0.1000000000D+01
  0.8989000000D-01  0.0000000000D+00
 s    6  1.00
  0.8264000000D+02  0.0000000000D+00
  0.1241000000D+02  0.0000000000D+00
  0.2824000000D+01  0.0000000000D+00
  0.7977000000D+00  0.0000000000D+00
  0.2581000000D+00  0.0000000000D+00
  0.8989000000D-01  0.1000000000D+01
 s    1  1.00
  0.2363000000D-01  0.1000000000D+01
 p    1  1.00
  0.2292000000D+01  0.1000000000D+01
 p    1  1.00
  0.8380000000D+00  0.1000000000D+01
 p    1  1.00
  0.2920000000D+00  0.1000000000D+01
 p    1  1.00
  0.8480000000D-01  0.1000000000D+01
 d    1  1.00
  0.2062000000D+01  0.1000000000D+01
 d    1  1.00
  0.6620000000D+00  0.1000000000D+01
 d    1  1.00
  0.1900000000D+00  0.1000000000D+01
 f    1  1.00
  0.1397000000D+01  0.1000000000D+01
 f    1  1.00
  0.3600000000D+00  0.1000000000D+01
  
  2 0
 s    6  1.00
  0.8264000000D+02  0.2006000801D-02
  0.1241000000D+02  0.1534300612D-01
  0.2824000000D+01  0.7557903017D-01
  0.7977000000D+00  0.2568751025D+00
  0.2581000000D+00  0.4973681985D+00
  0.8989000000D-01  0.2961331182D+00
 s    6  1.00
  0.8264000000D+02  0.0000000000D+00
  0.1241000000D+02  0.0000000000D+00
  0.2824000000D+01  0.0000000000D+00
  0.7977000000D+00  0.1000000000D+01
  0.2581000000D+00  0.0000000000D+00
  0.8989000000D-01  0.0000000000D+00
 s    6  1.00
  0.8264000000D+02  0.0000000000D+00
  0.1241000000D+02  0.0000000000D+00
  0.2824000000D+01  0.0000000000D+00
  0.7977000000D+00  0.0000000000D+00
  0.2581000000D+00  0.1000000000D+01
  0.8989000000D-01  0.0000000000D+00
 s    6  1.00
  0.8264000000D+02  0.0000000000D+00
  0.1241000000D+02  0.0000000000D+00
  0.2824000000D+01  0.0000000000D+00
  0.7977000000D+00  0.0000000000D+00
  0.2581000000D+00  0.0000000000D+00
  0.8989000000D-01  0.1000000000D+01
 s    1  1.00
  0.2363000000D-01  0.1000000000D+01
 p    1  1.00
  0.2292000000D+01  0.1000000000D+01
 p    1  1.00
  0.8380000000D+00  0.1000000000D+01
 p    1  1.00
  0.2920000000D+00  0.1000000000D+01
 p    1  1.00
  0.8480000000D-01  0.1000000000D+01
 d    1  1.00
  0.2062000000D+01  0.1000000000D+01
 d    1  1.00
  0.6620000000D+00  0.1000000000D+01
 d    1  1.00
  0.1900000000D+00  0.1000000000D+01
 f    1  1.00
  0.1397000000D+01  0.1000000000D+01
 f    1  1.00
  0.3600000000D+00  0.1000000000D+01
 
 
[MO]
 Sym=      1.1
 Ene=      -0.5891
 Spin= Alpha
 Occup=    1.976488
1 0.83333482387221
2 -0.020123326927697
3 -0.15330627598487
4 -0.15759101454105
5 -0.000813823695807
6 0.0
7 0.0
8 0.005284224536675
9 0.0
10 0.0
11 0.009518024307932
12 0.0
13 0.0
14 0.006521620593186
15 0.0
16 0.0
17 0.003718509935292
18 -0.000731364707130
19 -0.000731364707130
20 0.001462729414260
21 0.0
22 0.0
23 0.0
24 0.000625262039944
25 0.000625262039944
26 -0.001250524079889
27 0.0
28 0.0
29 0.0
30 0.000611198919652
31 0.000611198919652
32 -0.001222397839303
33 0.0
34 0.0
35 0.0
36 0.0
37 0.0
38 -0.000000266486090
39 0.0
40 0.0
41 0.000000178764303
42 0.0
43 0.0
44 0.000000178764303
45 0.0
46 0.0
47 0.0
48 -0.001006855296576
49 0.0
50 0.0
51 0.000675419065995
52 0.0
53 0.0
54 0.000675419065995
55 0.0
56 0.83333482387221
57 -0.020123326927697
58 -0.15330627598487
59 -0.15759101454105
60 -0.000813823695807
61 0.0
62 0.0
63 -0.005284224536675
64 0.0
65 0.0
66 -0.009518024307932
67 0.0
68 0.0
69 -0.006521620593186
70 0.0
71 0.0
72 -0.003718509935292
73 -0.000731364707130
74 -0.000731364707130
75 0.001462729414260
76 0.0
77 0.0
78 0.0
79 0.000625262039944
80 0.000625262039944
81 -0.001250524079889
82 0.0
83 0.0
84 0.0
85 0.000611198919652
86 0.000611198919652
87 -0.001222397839303
88 0.0
89 0.0
90 0.0
91 0.0
92 0.0
93 0.000000266486090
94 0.0
95 0.0
96 -0.000000178764303
97 0.0
98 0.0
99 -0.000000178764303
100 0.0
101 0.0
102 0.0
103 0.001006855296576
104 0.0
105 0.0
106 -0.000675419065995
107 0.0
108 0.0
109 -0.000675419065995
110 0.0
 Sym=      1.5
 Ene=       0.6323
 Spin= Alpha
 Occup=    0.023512
1 1.33254901184909
2 0.21631011872609
3 0.051861463264898
4 -0.93382377609360
5 -0.025090849065552
6 0.0
7 0.0
8 -0.003834895288189
9 0.0
10 0.0
11 0.025326252881971
12 0.0
13 0.0
14 0.031165247930617
15 0.0
16 0.0
17 -0.11706505868686
18 0.000602242060753
19 0.000602242060753
20 -0.001204484121506
21 0.0
22 0.0
23 0.0
24 -0.001653362194380
25 -0.001653362194380
26 0.003306724388760
27 0.0
28 0.0
29 0.0
30 0.001905181362745
31 0.001905181362745
32 -0.003810362725490
33 0.0
34 0.0
35 0.0
36 0.0
37 0.0
38 -0.001287899616307
39 0.0
40 0.0
41 0.000863949327078
42 0.0
43 0.0
44 0.000863949327078
45 0.0
46 0.0
47 0.0
48 0.000410846515945
49 0.0
50 0.0
51 -0.000275604221392
52 0.0
53 0.0
54 -0.000275604221392
55 0.0
56 -1.33254901184909
57 -0.21631011872609
58 -0.051861463264898
59 0.93382377609360
60 0.025090849065552
61 0.0
62 0.0
63 -0.003834895288189
64 0.0
65 0.0
66 0.025326252881971
67 0.0
68 0.0
69 0.031165247930617
70 0.0
71 0.0
72 -0.11706505868686
73 -0.000602242060753
74 -0.000602242060753
75 0.001204484121506
76 0.0
77 0.0
78 0.0
79 0.001653362194380
80 0.001653362194380
81 -0.003306724388760
82 0.0
83 0.0
84 0.0
85 -0.001905181362745
86 -0.001905181362745
87 0.003810362725490
88 0.0
89 0.0
90 0.0
91 0.0
92 0.0
93 -0.001287899616307
94 0.0
95 0.0
96 0.000863949327078
97 0.0
98 0.0
99 0.000863949327078
100 0.0
101 0.0
102 0.0
103 0.000410846515945
104 0.0
105 0.0
106 -0.000275604221392
107 0.0
108 0.0
109 -0.000275604221392
110 0.0
 Sym=      2.1
 Ene=       0.0472
 Spin= Alpha
 Occup=    0.000000
1 -0.11190630763014
2 -0.007588688706625
3 0.15208367450546
4 -0.41601114870481
5 0.72836778796765
6 0.0
7 0.0
8 -0.004737876877965
9 0.0
10 0.0
11 0.011635917822012
12 0.0
13 0.0
14 -0.084014503226898
15 0.0
16 0.0
17 0.056443434053784
18 -0.000525903301986
19 -0.000525903301986
20 0.001051806603971
21 0.0
22 0.0
23 0.0
24 0.004131915645001
25 0.004131915645001
26 -0.008263831290002
27 0.0
28 0.0
29 0.0
30 0.012463673289611
31 0.012463673289611
32 -0.024927346579222
33 0.0
34 0.0
35 0.0
36 0.0
37 0.0
38 0.001256704541578
39 0.0
40 0.0
41 -0.000843023034780
42 0.0
43 0.0
44 -0.000843023034780
45 0.0
46 0.0
47 0.0
48 -0.007331311024268
49 0.0
50 0.0
51 0.004917992944337
52 0.0
53 0.0
54 0.004917992944337
55 0.0
56 -0.11190630763014
57 -0.007588688706625
58 0.15208367450546
59 -0.41601114870481
60 0.72836778796765
61 0.0
62 0.0
63 0.004737876877965
64 0.0
65 0.0
66 -0.011635917822012
67 0.0
68 0.0
69 0.084014503226898
70 0.0
71 0.0
72 -0.056443434053784
73 -0.000525903301986
74 -0.000525903301986
75 0.001051806603971
76 0.0
77 0.0
78 0.0
79 0.004131915645001
80 0.004131915645001
81 -0.008263831290002
82 0.0
83 0.0
84 0.0
85 0.012463673289611
86 0.012463673289611
87 -0.024927346579222
88 0.0
89 0.0
90 0.0
91 0.0
92 0.0
93 -0.001256704541578
94 0.0
95 0.0
96 0.000843023034780
97 0.0
98 0.0
99 0.000843023034780
100 0.0
101 0.0
102 0.0
103 0.007331311024268
104 0.0
105 0.0
106 -0.004917992944337
107 0.0
108 0.0
109 -0.004917992944337
110 0.0
 Sym=      2.5
 Ene=       0.0543
 Spin= Alpha
 Occup=    0.000000
1 -0.043196620105780
2 -0.002633357221497
3 1.16272324235361
4 8.31754431626057
5 6.47556108216518
6 0.0
7 0.0
8 0.002081463412283
9 0.0
10 0.0
11 -0.016740325345720
12 0.0
13 0.0
14 0.47903484013371
15 0.0
16 0.0
17 2.03414449685006
18 0.001107351849275
19 0.001107351849275
20 -0.002214703698550
21 0.0
22 0.0
23 0.0
24 -0.004523784781979
25 -0.004523784781979
26 0.009047569563957
27 0.0
28 0.0
29 0.0
30 -0.068685052952541
31 -0.068685052952541
32 0.13737010590508
33 0.0
34 0.0
35 0.0
36 0.0
37 0.0
38 -0.000086444603953
39 0.0
40 0.0
41 0.000057988803218
42 0.0
43 0.0
44 0.000057988803218
45 0.0
46 0.0
47 0.0
48 0.000311066462300
49 0.0
50 0.0
51 -0.000208669726567
52 0.0
53 0.0
54 -0.000208669726567
55 0.0
56 0.043196620105780
57 0.002633357221497
58 -1.16272324235361
59 -8.31754431626057
60 -6.47556108216518
61 0.0
62 0.0
63 0.002081463412283
64 0.0
65 0.0
66 -0.016740325345720
67 0.0
68 0.0
69 0.47903484013371
70 0.0
71 0.0
72 2.03414449685006
73 -0.001107351849275
74 -0.001107351849275
75 0.002214703698550
76 0.0
77 0.0
78 0.0
79 0.004523784781979
80 0.004523784781979
81 -0.009047569563957
82 0.0
83 0.0
84 0.0
85 0.068685052952541
86 0.068685052952541
87 -0.13737010590508
88 0.0
89 0.0
90 0.0
91 0.0
92 0.0
93 -0.000086444603953
94 0.0
95 0.0
96 0.000057988803218
97 0.0
98 0.0
99 0.000057988803218
100 0.0
101 0.0
102 0.0
103 0.000311066462300
104 0.0
105 0.0
106 -0.000208669726567
107 0.0
108 0.0
109 -0.000208669726567
110 0.0
 Sym=      1.3
 Ene=       0.1744
 Spin= Alpha
 Occup=    0.000000
1 0.0
2 0.0
3 0.0
4 0.0
5 0.0
6 0.0
7 -0.006144785294008
8 0.0
9 0.0
10 0.041270172960199
11 0.0
12 0.0
13 -0.12897184598406
14 0.0
15 0.0
16 0.57031132455914
17 0.0
18 0.0
19 0.0
20 0.0
21 0.0
22 0.0
23 -0.001890381283856
24 0.0
25 0.0
26 0.0
27 0.0
28 0.0
29 0.009229071585473
30 0.0
31 0.0
32 0.0
33 0.0
34 0.0
35 0.047875564286958
36 0.0
37 0.001680452524593
38 0.0
39 0.0
40 0.000751521215590
41 0.0
42 0.0
43 -0.003006084862360
44 0.0
45 0.0
46 0.0
47 -0.018486924848688
48 0.0
49 0.0
50 -0.008267604131319
51 0.0
52 0.0
53 0.033070416525276
54 0.0
55 0.0
56 0.0
57 0.0
58 0.0
59 0.0
60 0.0
61 0.0
62 -0.006144785294008
63 0.0
64 0.0
65 0.041270172960199
66 0.0
67 0.0
68 -0.12897184598406
69 0.0
70 0.0
71 0.57031132455914
72 0.0
73 0.0
74 0.0
75 0.0
76 0.0
77 0.0
78 0.001890381283856
79 0.0
80 0.0
81 0.0
82 0.0
83 0.0
84 -0.009229071585473
85 0.0
86 0.0
87 0.0
88 0.0
89 0.0
90 -0.047875564286958
91 0.0
92 0.001680452524593
93 0.0
94 0.0
95 0.000751521215590
96 0.0
97 0.0
98 -0.003006084862360
99 0.0
100 0.0
101 0.0
102 -0.018486924848688
103 0.0
104 0.0
105 -0.008267604131319
106 0.0
107 0.0
108 0.033070416525276
109 0.0
110 0.0
 Sym=      1.2
 Ene=       0.1744
 Spin= Alpha
 Occup=    0.000000
1 0.0
2 0.0
3 0.0
4 0.0
5 0.0
6 -0.006144785294008
7 0.0
8 0.0
9 0.041270172960199
10 0.0
11 0.0
12 -0.12897184598406
13 0.0
14 0.0
15 0.57031132455914
16 0.0
17 0.0
18 0.0
19 0.0
20 0.0
21 0.0
22 -0.001890381283856
23 0.0
24 0.0
25 0.0
26 0.0
27 0.0
28 0.009229071585473
29 0.0
30 0.0
31 0.0
32 0.0
33 0.0
34 0.047875564286957
35 0.0
36 0.001680452524593
37 0.0
38 0.0
39 0.000751521215590
40 0.0
41 0.0
42 -0.003006084862360
43 0.0
44 0.0
45 0.0
46 -0.018486924848687
47 0.0
48 0.0
49 -0.008267604131319
50 0.0
51 0.0
52 0.033070416525276
53 0.0
54 0.0
55 0.0
56 0.0
57 0.0
58 0.0
59 0.0
60 0.0
61 -0.006144785294008
62 0.0
63 0.0
64 0.041270172960199
65 0.0
66 0.0
67 -0.12897184598406
68 0.0
69 0.0
70 0.57031132455914
71 0.0
72 0.0
73 0.0
74 0.0
75 0.0
76 0.0
77 0.001890381283856
78 0.0
79 0.0
80 0.0
81 0.0
82 0.0
83 -0.009229071585473
84 0.0
85 0.0
86 0.0
87 0.0
88 0.0
89 -0.047875564286957
90 0.0
91 0.001680452524593
92 0.0
93 0.0
94 0.000751521215590
95 0.0
96 0.0
97 -0.003006084862360
98 0.0
99 0.0
100 0.0
101 -0.018486924848687
102 0.0
103 0.0
104 -0.008267604131319
105 0.0
106 0.0
107 0.033070416525276
108 0.0
109 0.0
110 0.0
 Sym=      3.1
 Ene=       0.2290
 Spin= Alpha
 Occup=    0.000000
1 0.12180519136850
2 -0.41139642966817
3 -0.71187971993446
4 -0.50830904156482
5 0.40036557564572
6 0.0
7 0.0
8 -0.018424790988233
9 0.0
10 0.0
11 -0.013590266298887
12 0.0
13 0.0
14 0.87782287662892
15 0.0
16 0.0
17 3.24028961836027
18 0.002878081549679
19 0.002878081549679
20 -0.005756163099359
21 0.0
22 0.0
23 0.0
24 -0.082248816035803
25 -0.082248816035803
26 0.16449763207161
27 0.0
28 0.0
29 0.0
30 -0.35543859291642
31 -0.35543859291642
32 0.71087718583284
33 0.0
34 0.0
35 0.0
36 0.0
37 0.0
38 0.024073209275337
39 0.0
40 0.0
41 -0.016148799712869
42 0.0
43 0.0
44 -0.016148799712869
45 0.0
46 0.0
47 0.0
48 0.094787337888645
49 0.0
50 0.0
51 -0.063585279277575
52 0.0
53 0.0
54 -0.063585279277575
55 0.0
56 0.12180519136850
57 -0.41139642966817
58 -0.71187971993446
59 -0.50830904156482
60 0.40036557564572
61 0.0
62 0.0
63 0.018424790988233
64 0.0
65 0.0
66 0.013590266298887
67 0.0
68 0.0
69 -0.87782287662892
70 0.0
71 0.0
72 -3.24028961836027
73 0.002878081549679
74 0.002878081549679
75 -0.005756163099359
76 0.0
77 0.0
78 0.0
79 -0.082248816035803
80 -0.082248816035803
81 0.16449763207161
82 0.0
83 0.0
84 0.0
85 -0.35543859291642
86 -0.35543859291642
87 0.71087718583284
88 0.0
89 0.0
90 0.0
91 0.0
92 0.0
93 -0.024073209275337
94 0.0
95 0.0
96 0.016148799712869
97 0.0
98 0.0
99 0.016148799712869
100 0.0
101 0.0
102 0.0
103 -0.094787337888645
104 0.0
105 0.0
106 0.063585279277575
107 0.0
108 0.0
109 0.063585279277575
110 0.0
 Sym=      3.5
 Ene=       0.2314
 Spin= Alpha
 Occup=    0.000000
1 0.14627417869069
2 -0.038470272765661
3 3.53205821403266
4 38.2691862949651
5 5.39996036259535
6 0.0
7 0.0
8 0.005560374653412
9 0.0
10 0.0
11 -0.11273694210734
12 0.0
13 0.0
14 1.43018652652762
15 0.0
16 0.0
17 8.97162098086678
18 0.005198972185473
19 0.005198972185473
20 -0.010397944370946
21 0.0
22 0.0
23 0.0
24 -0.001176722322067
25 -0.001176722322067
26 0.002353444644134
27 0.0
28 0.0
29 0.0
30 -0.22380737316763
31 -0.22380737316763
32 0.44761474633527
33 0.0
34 0.0
35 0.0
36 0.0
37 0.0
38 -0.003096140252778
39 0.0
40 0.0
41 0.002076954021925
42 0.0
43 0.0
44 0.002076954021925
45 0.0
46 0.0
47 0.0
48 -0.001574160839820
49 0.0
50 0.0
51 0.001055979193607
52 0.0
53 0.0
54 0.001055979193607
55 0.0
56 -0.14627417869069
57 0.038470272765661
58 -3.53205821403266
59 -38.2691862949651
60 -5.39996036259535
61 0.0
62 0.0
63 0.005560374653412
64 0.0
65 0.0
66 -0.11273694210734
67 0.0
68 0.0
69 1.43018652652762
70 0.0
71 0.0
72 8.97162098086678
73 -0.005198972185473
74 -0.005198972185473
75 0.010397944370946
76 0.0
77 0.0
78 0.0
79 0.001176722322067
80 0.001176722322067
81 -0.002353444644134
82 0.0
83 0.0
84 0.0
85 0.22380737316763
86 0.22380737316763
87 -0.44761474633527
88 0.0
89 0.0
90 0.0
91 0.0
92 0.0
93 -0.003096140252778
94 0.0
95 0.0
96 0.002076954021925
97 0.0
98 0.0
99 0.002076954021925
100 0.0
101 0.0
102 0.0
103 -0.001574160839820
104 0.0
105 0.0
106 0.001055979193607
107 0.0
108 0.0
109 0.001055979193607
110 0.0
 Sym=      1.6
 Ene=       0.2334
 Spin= Alpha
 Occup=    0.000000
1 0.0
2 0.0
3 0.0
4 0.0
5 0.0
6 -0.002668640283314
7 0.0
8 0.0
9 0.11668292915160
10 0.0
11 0.0
12 1.58807280576188
13 0.0
14 0.0
15 4.19168943660895
16 0.0
17 0.0
18 0.0
19 0.0
20 0.0
21 0.0
22 0.001770682600030
23 0.0
24 0.0
25 0.0
26 0.0
27 0.0
28 0.23696784864345
29 0.0
30 0.0
31 0.0
32 0.0
33 0.0
34 0.90087268347601
35 0.0
36 -0.016181767899836
37 0.0
38 0.0
39 -0.007236706604032
40 0.0
41 0.0
42 0.028946826416126
43 0.0
44 0.0
45 0.0
46 -0.074063644452226
47 0.0
48 0.0
49 -0.033122268731311
50 0.0
51 0.0
52 0.13248907492524
53 0.0
54 0.0
55 0.0
56 0.0
57 0.0
58 0.0
59 0.0
60 0.0
61 0.002668640283314
62 0.0
63 0.0
64 -0.11668292915160
65 0.0
66 0.0
67 -1.58807280576188
68 0.0
69 0.0
70 -4.19168943660895
71 0.0
72 0.0
73 0.0
74 0.0
75 0.0
76 0.0
77 0.001770682600030
78 0.0
79 0.0
80 0.0
81 0.0
82 0.0
83 0.23696784864345
84 0.0
85 0.0
86 0.0
87 0.0
88 0.0
89 0.90087268347601
90 0.0
91 0.016181767899836
92 0.0
93 0.0
94 0.007236706604032
95 0.0
96 0.0
97 -0.028946826416126
98 0.0
99 0.0
100 0.0
101 0.074063644452226
102 0.0
103 0.0
104 0.033122268731311
105 0.0
106 0.0
107 -0.13248907492524
108 0.0
109 0.0
110 0.0
 Sym=      1.7
 Ene=       0.2334
 Spin= Alpha
 Occup=    0.000000
1 0.0
2 0.0
3 0.0
4 0.0
5 0.0
6 0.0
7 -0.002668640283314
8 0.0
9 0.0
10 0.11668292915159
11 0.0
12 0.0
13 1.58807280576184
14 0.0
15 0.0
16 4.19168943660894
17 0.0
18 0.0
19 0.0
20 0.0
21 0.0
22 0.0
23 0.001770682600029
24 0.0
25 0.0
26 0.0
27 0.0
28 0.0
29 0.23696784864344
30 0.0
31 0.0
32 0.0
33 0.0
34 0.0
35 0.90087268347599
36 0.0
37 -0.016181767899835
38 0.0
39 0.0
40 -0.007236706604031
41 0.0
42 0.0
43 0.028946826416124
44 0.0
45 0.0
46 0.0
47 -0.074063644452224
48 0.0
49 0.0
50 -0.033122268731309
51 0.0
52 0.0
53 0.13248907492524
54 0.0
55 0.0
56 0.0
57 0.0
58 0.0
59 0.0
60 0.0
61 0.0
62 0.002668640283314
63 0.0
64 0.0
65 -0.11668292915159
66 0.0
67 0.0
68 -1.58807280576184
69 0.0
70 0.0
71 -4.19168943660894
72 0.0
73 0.0
74 0.0
75 0.0
76 0.0
77 0.0
78 0.001770682600029
79 0.0
80 0.0
81 0.0
82 0.0
83 0.0
84 0.23696784864344
85 0.0
86 0.0
87 0.0
88 0.0
89 0.0
90 0.90087268347599
91 0.0
92 0.016181767899835
93 0.0
94 0.0
95 0.007236706604031
96 0.0
97 0.0
98 -0.028946826416124
99 0.0
100 0.0
101 0.0
102 0.074063644452224
103 0.0
104 0.0
105 0.033122268731309
106 0.0
107 0.0
108 -0.13248907492524
109 0.0
110 0.0
 Sym=      4.1
 Ene=       0.3265
 Spin= Alpha
 Occup=    0.000000
1 -0.42375953725661
2 -0.21857394555020
3 -1.44460170688816
4 1.68137375426183
5 -0.39504168525428
6 0.0
7 0.0
8 0.004068720604899
9 0.0
10 0.0
11 -0.099707411672262
12 0.0
13 0.0
14 1.06335437475642
15 0.0
16 0.0
17 1.57622501837705
18 0.005962665559535
19 0.005962665559535
20 -0.011925331119070
21 0.0
22 0.0
23 0.0
24 -0.079023019055230
25 -0.079023019055230
26 0.15804603811046
27 0.0
28 0.0
29 0.0
30 -0.32600832339483
31 -0.32600832339483
32 0.65201664678967
33 0.0
34 0.0
35 0.0
36 0.0
37 0.0
38 0.008662344996064
39 0.0
40 0.0
41 -0.005810877676726
42 0.0
43 0.0
44 -0.005810877676726
45 0.0
46 0.0
47 0.0
48 0.11002496543711
49 0.0
50 0.0
51 -0.073806990581834
52 0.0
53 0.0
54 -0.073806990581834
55 0.0
56 -0.42375953725661
57 -0.21857394555020
58 -1.44460170688816
59 1.68137375426183
60 -0.39504168525428
61 0.0
62 0.0
63 -0.004068720604899
64 0.0
65 0.0
66 0.099707411672262
67 0.0
68 0.0
69 -1.06335437475642
70 0.0
71 0.0
72 -1.57622501837705
73 0.005962665559535
74 0.005962665559535
75 -0.011925331119070
76 0.0
77 0.0
78 0.0
79 -0.079023019055230
80 -0.079023019055230
81 0.15804603811046
82 0.0
83 0.0
84 0.0
85 -0.32600832339483
86 -0.32600832339483
87 0.65201664678967
88 0.0
89 0.0
90 0.0
91 0.0
92 0.0
93 -0.008662344996064
94 0.0
95 0.0
96 0.005810877676726
97 0.0
98 0.0
99 0.005810877676726
100 0.0
101 0.0
102 0.0
103 -0.11002496543711
104 0.0
105 0.0
106 0.073806990581834
107 0.0
108 0.0
109 0.073806990581834
110 0.0
 Sym=      4.5
 Ene=       0.5505
 Spin= Alpha
 Occup=    0.000000
1 -0.17308369582254
2 0.97445362650745
3 17.3428433544156
4 -49.5996344639545
5 -1.68961853286514
6 0.0
7 0.0
8 -0.016947122747705
9 0.0
10 0.0
11 0.84482346708896
12 0.0
13 0.0
14 5.15827863343097
15 0.0
16 0.0
17 -9.77117754148737
18 -0.017691432190526
19 -0.017691432190526
20 0.035382864381051
21 0.0
22 0.0
23 0.0
24 -0.23326064838949
25 -0.23326064838949
26 0.46652129677898
27 0.0
28 0.0
29 0.0
30 -0.57817043524759
31 -0.57817043524759
32 1.15634087049518
33 0.0
34 0.0
35 0.0
36 0.0
37 0.0
38 0.040692769574377
39 0.0
40 0.0
41 -0.027297539688313
42 0.0
43 0.0
44 -0.027297539688313
45 0.0
46 0.0
47 0.0
48 0.054954081784997
49 0.0
50 0.0
51 -0.036864318753701
52 0.0
53 0.0
54 -0.036864318753701
55 0.0
56 0.17308369582254
57 -0.97445362650745
58 -17.3428433544156
59 49.5996344639545
60 1.68961853286514
61 0.0
62 0.0
63 -0.016947122747705
64 0.0
65 0.0
66 0.84482346708896
67 0.0
68 0.0
69 5.15827863343097
70 0.0
71 0.0
72 -9.77117754148737
73 0.017691432190526
74 0.017691432190526
75 -0.035382864381051
76 0.0
77 0.0
78 0.0
79 0.23326064838949
80 0.23326064838949
81 -0.46652129677898
82 0.0
83 0.0
84 0.0
85 0.57817043524759
86 0.57817043524759
87 -1.15634087049518
88 0.0
89 0.0
90 0.0
91 0.0
92 0.0
93 0.040692769574377
94 0.0
95 0.0
96 -0.027297539688313
97 0.0
98 0.0
99 -0.027297539688313
100 0.0
101 0.0
102 0.0
103 0.054954081784997
104 0.0
105 0.0
106 -0.036864318753701
107 0.0
108 0.0
109 -0.036864318753701
110 0.0
 Sym=      5.1
 Ene=       0.6021
 Spin= Alpha
 Occup=    0.000000
1 0.0
2 0.0
3 0.0
4 0.0
5 0.0
6 0.0
7 0.0
8 0.0
9 0.0
10 0.0
11 0.0
12 0.0
13 0.0
14 0.0
15 0.0
16 0.0
17 0.0
18 0.016056708081780
19 -0.016056708081780
20 0.0
21 0.0
22 0.0
23 0.0
24 -0.069193450215362
25 0.069193450215362
26 0.0
27 0.0
28 0.0
29 0.0
30 0.48914858940135
31 -0.48914858940135
32 0.0
33 0.0
34 0.0
35 0.0
36 0.0
37 0.0
38 0.0
39 0.0
40 0.0
41 0.006954728070199
42 0.0
43 0.0
44 -0.006954728070199
45 0.0
46 0.0
47 0.0
48 0.0
49 0.0
50 0.0
51 -0.038943359853675
52 0.0
53 0.0
54 0.038943359853675
55 0.0
56 0.0
57 0.0
58 0.0
59 0.0
60 0.0
61 0.0
62 0.0
63 0.0
64 0.0
65 0.0
66 0.0
67 0.0
68 0.0
69 0.0
70 0.0
71 0.0
72 0.0
73 0.016056708081780
74 -0.016056708081780
75 0.0
76 0.0
77 0.0
78 0.0
79 -0.069193450215362
80 0.069193450215362
81 0.0
82 0.0
83 0.0
84 0.0
85 0.48914858940135
86 -0.48914858940135
87 0.0
88 0.0
89 0.0
90 0.0
91 0.0
92 0.0
93 0.0
94 0.0
95 0.0