[Molden Format]
[Molpro variables]
_NUMVAR=  788.0000000000000    
_AVOGAD= 0.6022136736000000E+24
_BOLTZ= 0.1380658000000000E-22
_CLIGHT=  29979245800.00000    
_EV2006= 0.3674930886769165E-01
_EV= 0.3674932534394180E-01
_ENULL= 0.8854187817000000E-11
_KJOULE= 0.3808798324128737E-03
_KJOULE/MOL= 0.3808798324128737E-03
_CM= 0.4556335267302901E-05
_CM-1= 0.4556335267302901E-05
_DEB2SI= 0.3335641000000000E-29
_AMU2AU=  1822.888390000000    
_KCAL= 0.1593601117815568E-02
_KCAL/MOL= 0.1593601117815568E-02
_KELVIN2006= 0.3166828861084835E-05
_KELVIN= 0.3166814820820034E-05
_JOULE= 0.4359748200000000E-17
_HERTZ2006= 0.1519829850815779E-15
_HERTZ= 0.1519829846011223E-15
_HZ2006= 0.1519829850815779E-15
_HZ= 0.1519829846011223E-15
_JPCAL=  4.184000000000000    
_PLANCK= 0.6626075540000000E-33
_TOA2006= 0.5291772490000000    
_TOA= 0.5291772090000000    
_TOANG2006= 0.5291772490000000    
_TOANG= 0.5291772090000000    
_TORAD= 0.1745329251994330E-01
_TOCM=  219474.6306700000    
_TODEBYE=  2.541580000000000    
_TOEV2006=  27.21139610000000    
_TOE= 0.4803242000000000E-09
_TOEV=  27.21138390000000    
_TOHERTZ2006=  6579683899900000.    
_TOHERTZ=  6579683920700000.    
_TOHZ2006=  6579683899900000.    
_TOHZ=  6579683920700000.    
_TOK2006=  315773.3000000000    
_TOK=  315774.7000000000    
_TOKCAL=  627.5096000000000    
_TOKELVIN2006=  315773.3000000000    
_TOKELVIN=  315774.7000000000    
_TOKJ=  2625.500000000000    
_TOKJOULE=  2625.500000000000    
_TOKG= 0.1660565586000000E-26
_ANG2006=  1.889725988578923    
_ANG=  1.889726131421507    
_ANGSTROM2006=  1.889725988578923    
_ANGSTROM=  1.889726131421507    
_RPAREF=  0.000000000000000    
_RPADISS=  0.000000000000000    
_IGNORE_UNDEF=  2.000000000000000    
_STRICTCHECK=  0.000000000000000    
_SEW_ONEEL=  0.000000000000000    
_CPPDONE=FALSE
_DKROLL_DONE=  0.000000000000000    
_FOCKDONE=TRUE
_GRADONE=FALSE
_HESSDONE=FALSE
_INTDONE=TRUE
_SCFDONE=TRUE
_MODUL_BLOCK=FALSE
_MODUL_CUDA=FALSE
_MODUL_SLATER=FALSE
_MODUL_MRCC=FALSE
_MODUL_NBO6=FALSE
_MODUL_NECI=TRUE
_MODUL_AIMS=TRUE
_MRCC_EXEC=
_FITC_AO_SAVED=FALSE
_FITC_MO_SAVED=FALSE
_SHARED_FS=TRUE
_LSTYP=SEWARD
_INTYP=INTS
_GEOMTYP=ZMAT
_GRADTYP=ALASKA
_DIRECT=FALSE
_DKHO= -1.000000000000000    
_SYNCM=  0.000000000000000    
_BASIS=$BSET
_ZORIENT=  1.000000000000000    
_NELEC=  2.000000000000000    
!SPIN=  0.000000000000000    
_QSDSTEP=  0.000000000000000    
_QSDIRC=  0.000000000000000    
_PROGRAM=HF
_CPUSTEP= 0.1000000000000001E-01
_SYSSTEP=  0.000000000000000    
_WALLSTEP= 0.1000000000000000E-01
!DFSCF=  0.000000000000000    
!SCSGRD=  0.000000000000000    
_BASINP=  610.0000000000000    
_CPUTOT= 0.1300000000000000    
_CPUSORT= 0.3000000000000000E-01
_SYSSORT= 0.2000000000000000E-01
_WALLSORT= 0.5000000074505806E-01
_DFTEXFAC=  1.000000000000000    
_DMX=  0.000000000000000    
_DMY=  0.000000000000000    
_DMZ=  0.000000000000000    
_DMX_SCF=  0.000000000000000    
_DMY_SCF=  0.000000000000000    
_DMZ_SCF=  0.000000000000000    
_EHOMO=-0.5965983397099610    
_ELUMO= 0.5265480545633934E-01
_ENERGY= -1.133055497892587    
_ENUC= 0.7211961436142112    
_GRADEXFAC=  9999.000000000000    
_GRADMETHOD=  1.000000000000000    
_NMRMETHOD=  0.000000000000000    
!GRID_FREEZE= -1.000000000000000    
_ITERATIONS=  6.000000000000000    
_LASTNELEC=  2.000000000000000    
_LASTSPIN=  0.000000000000000    
_LASTSYM=  1.000000000000000    
_MPP_PROG=  0.000000000000000    
_NPROC_MPP=  1.000000000000000    
_NPROC_MPPX=  1.000000000000000    
_NPROC_SMP=  1.000000000000000    
_NUMSTEP=  0.000000000000000    
_ORBITAL=  2100.200000000000    
_PI=  3.141592653589793    
_SEIG_MIN= 0.5188389856592639E-04
_SEWPROP=TRUE
_STATUS=  1.000000000000000    
_SYSTOT= 0.5000000000000000E-01
_VERSION=  2012001.000000000    
_WALLTOT= 0.2300000000000000    
_DATE=28-Aug-15
_LASTORB=RHF
_MACHINE=Linux-3.2.0-89-generic/sce-chem-c01105(x86_64) 64 bit serial version
_OUTPUT=/home/s1267651/phd_mini_24Aug2015/nikolaz/molpro2/AB.xml
_PGROUP=D2h
_TIME=16:04:16
_LIBMOL=/usr/local/molpro/molprop_2012_1_Linux_x86_64_i8/lib/
!VIBCNT=  0.000000000000000    
!RGHFCNT=  0.000000000000000    
!SURFREC=  0.000000000000000    
!POLYREC=  0.000000000000000    
!DIPREC=  0.000000000000000    
!VSCFREC=  0.000000000000000    
!VCIREC=  0.000000000000000    
!PVCIREC=  0.000000000000000    
!VMP2REC=  0.000000000000000    
!VMCSCFREC=  0.000000000000000    
!VMRCIREC=  0.000000000000000    
!VIBINFO=  0.000000000000000    
!GAREC=  0.000000000000000    
!SCFORB=  21002.00000000000    
!NEWMOL= -1.000000000000000    
!NEWSYM= -1.000000000000000    
_SLFILES=slscratch
_NGSSTO=  9.000000000000000    
_SIN=SIN
_COS=COS
_TAN=TAN
_ACOS=ACOS
_ASIN=ASIN
_ATAN=ATAN
_COSH=COSH
_SINH=SINH
_TANH=TANH
_ABS=ABS
_MOD=MOD
_ERF=ERF
_REFC=REFC
_ERFC=ERFC
_HYPOT=HYPOT
_J0=J0
_J1=J1
_JN=JN
_GAMMA=GAMMA
_LGAMMA=LGAMMA
_Y0=Y0
_Y1=Y1
_YN=YN
_EXP=EXP
_LOG=LOG
_LOG10=LOG10
_SQRT=SQRT
_INT=INT
_NINT=NINT
_MAX=MAX
_MIN=MIN
_COSMO=  0.000000000000000    
_COSMOIT=  0.000000000000000    
_COSMOES=  0.000000000000000    
_COSMOEDS=  0.000000000000000    
_COSMOEC=  0.000000000000000    
_COSMOEDCORR=  0.000000000000000    
_FEPSI=  1.000000000000000    
_SL_IsMM=  0.000000000000000    
_SL_NSYM=  8.000000000000000    
_SL_System_BitSw=  0.000000000000000    
_SL_Unique_atoms=  0.000000000000000    
_SL_GRAD=  0.000000000000000    
_SL_MAXUPD_Hess=  5.000000000000000    
_SL_N_PRINT_COD=  5.000000000000000    
_SL_PRINT_CODES=  0.000000000000000    
_SL_BasType=  0.000000000000000    
_SL_Energy_Pred=  0.000000000000000    
_SL_New_Coords=  0.000000000000000    
_SL_Total_Nuclea=  0.000000000000000    
_SL_Highest_Mltp=  0.000000000000000    
_SL_Ref_Geom=  0.000000000000000    
_SL_Symmetry_ope=  1.000000000000000    
_SL_agrad=  0.000000000000000    
_SL_GrdMax=  0.000000000000000    
_SL_GrdNorm=  0.000000000000000    
_SL_GrdRMS=  0.000000000000000    
_SL_Hss_Q=  0.000000000000000    
_SL_Hss_X=  0.000000000000000    
_SL_BMxOld=  0.000000000000000    
_SL_KtB=  0.000000000000000    
!LATTICE= -1.000000000000000    
!NEWLATTICE=  0.000000000000000    
!LATGRAD_VAR=FALSE
!SEW_LATTICE=  1.000000000000000    
!LOCAL=  0.000000000000000    
!SAVEDOM= -1.000000000000000    
!RESTDOM= -1.000000000000000    
!SAVEDOM_HF= -1.000000000000000    
!RESTDOM_HF= -1.000000000000000    
!HESSREC=  0.000000000000000    
!FREQREC=  0.000000000000000    
!NMODREC=  0.000000000000000    
!GTASKS=  0.000000000000000    
!HTASKS=  0.000000000000000    
!THRCHG= 0.1000000000000000    
!DEBUG= -1.000000000000000    
!CFIT_CPHF=  0.000000000000000    
!RDOMAUX_CPHF=  3.000000000000000    
!THRAO_CPHF= 0.1000000000000000E-09
!THRMO_CPHF= 0.1000000000000000E-08
!THROV_CPHF= 0.1000000000000000E-11
!THRSW_CPHF= 0.1000000000000000E-09
!THRPROD_CPHF= 0.1000000000000000E-08
!THRAOPR_CPHF= 0.1000000000000000E-11
!CFIT_SCFGRD=  0.000000000000000    
!RDOMAUX_SCFGRD=  5.000000000000000    
!THRAO_SCFGRD= 0.1000000000000000E-09
!THRMO_SCFGRD= 0.1000000000000000E-08
!THROV_SCFGRD= 0.1000000000000000E-11
!THRSW_SCFGRD= 0.1000000000000000E-09
!THRPROD_SCFGRD= 0.1000000000000000E-08
!THRAOPR_SCFGRD= 0.1000000000000000E-11
!LOCFIT_SCF=  0.000000000000000    
!LOCFIT_MP2= -1.000000000000000    
_RIDOM=  0.000000000000000    
!CC2_METHOD=  0.000000000000000    
_BASIS2006=FALSE
_SVDDEL= -1.000000000000000    
_SVDDELA= -1.000000000000000    
_SVDDELP= -1.000000000000000    
_SVDDELF= -1.000000000000000    
_SVDDELS= -1.000000000000000    
_SVDDEL_ABS= -1.000000000000000    
_SVDDELA_ABS= -1.000000000000000    
_SVDDELP_ABS= -1.000000000000000    
_SVDDELF_ABS= -1.000000000000000    
_SVDDELS_ABS= -1.000000000000000    
_MAXBASIS=  0.000000000000000    
!OPT_CONICAL=  0.000000000000000    
!CLEARSP_JGRID=  0.000000000000000    
_4EXT_NDISKS=  1.000000000000000    
!ZMP=  0.000000000000000    
_MAXIT_ZMP=  500.0000000000000    
_MAXDIS_ZMP=  100.0000000000000    
_ACCU_ZMP=  14.00000000000000    
_SHIFTA_ZMP= -100.0000000000000    
!EMBEDFLAG=  1.000000000000000    
!EMBED=FALSE
!EMBED_F12=FALSE
!EMBEDNUC=  0.000000000000000    
_EMBEDENERGY=  0.000000000000000    
_KSPACETIME=  0.000000000000000    
_RSPACETIME=  0.000000000000000    
!EMBED_DFC=FALSE
!NUM_VOIDS=  0.000000000000000    
_IBODY=  0.000000000000000    
_EMBE_TOTAL=  0.000000000000000    
_EMBE_HF=  0.000000000000000    
_EMBE_CORR=  0.000000000000000    
!EDFT=  0.000000000000000    
_IFASTLATGRAD=  0.000000000000000    
_SINDEX=  0.000000000000000    
A=H
B=H
BSET=AUG-CC-PVTZ
R=  1.386585340000000    
METH=HF
GX1=  0.000000000000000    
GY1=  0.000000000000000    
GZ1=-0.6932926700000001    
GX2=  0.000000000000000    
GY2=  0.000000000000000    
GZ2= 0.6932926700000001    
STR=../input/HH_AUG-CC-PVTZ_HF.mld
[Atoms] Angs
H     1    1         0.0000000000        0.0000000000       -0.3668746801
H     2    1         0.0000000000        0.0000000000        0.3668746801
[GTO]
  1 0
 s    5  1.00
  0.3387000000D+02  0.6067999217D-02
  0.5095000000D+01  0.4530799416D-01
  0.1159000000D+01  0.2028219738D+00
  0.3258000000D+00  0.5039029350D+00
  0.1027000000D+00  0.3834209505D+00
 s    5  1.00
  0.3387000000D+02  0.0000000000D+00
  0.5095000000D+01  0.0000000000D+00
  0.1159000000D+01  0.0000000000D+00
  0.3258000000D+00  0.1000000000D+01
  0.1027000000D+00  0.0000000000D+00
 s    5  1.00
  0.3387000000D+02  0.0000000000D+00
  0.5095000000D+01  0.0000000000D+00
  0.1159000000D+01  0.0000000000D+00
  0.3258000000D+00  0.0000000000D+00
  0.1027000000D+00  0.1000000000D+01
 s    1  1.00
  0.2526000000D-01  0.1000000000D+01
 p    1  1.00
  0.1407000000D+01  0.1000000000D+01
 p    1  1.00
  0.3880000000D+00  0.1000000000D+01
 p    1  1.00
  0.1020000000D+00  0.1000000000D+01
 d    1  1.00
  0.1057000000D+01  0.1000000000D+01
 d    1  1.00
  0.2470000000D+00  0.1000000000D+01
  
  2 0
 s    5  1.00
  0.3387000000D+02  0.6067999217D-02
  0.5095000000D+01  0.4530799416D-01
  0.1159000000D+01  0.2028219738D+00
  0.3258000000D+00  0.5039029350D+00
  0.1027000000D+00  0.3834209505D+00
 s    5  1.00
  0.3387000000D+02  0.0000000000D+00
  0.5095000000D+01  0.0000000000D+00
  0.1159000000D+01  0.0000000000D+00
  0.3258000000D+00  0.1000000000D+01
  0.1027000000D+00  0.0000000000D+00
 s    5  1.00
  0.3387000000D+02  0.0000000000D+00
  0.5095000000D+01  0.0000000000D+00
  0.1159000000D+01  0.0000000000D+00
  0.3258000000D+00  0.0000000000D+00
  0.1027000000D+00  0.1000000000D+01
 s    1  1.00
  0.2526000000D-01  0.1000000000D+01
 p    1  1.00
  0.1407000000D+01  0.1000000000D+01
 p    1  1.00
  0.3880000000D+00  0.1000000000D+01
 p    1  1.00
  0.1020000000D+00  0.1000000000D+01
 d    1  1.00
  0.1057000000D+01  0.1000000000D+01
 d    1  1.00
  0.2470000000D+00  0.1000000000D+01
 
 
[MO]
 Sym=      1.1
 Ene=      -0.5966
 Spin= Alpha
 Occup=    2.000000
1 0.79174447340001
2 -0.11491750392237
3 -0.17081454832550
4 -0.000931896456811
5 0.0
6 0.0
7 0.012769773097216
8 0.0
9 0.0
10 0.013390681866184
11 0.0
12 0.0
13 0.007671179556147
14 -0.000240807991963
15 -0.000240807991963
16 0.000481615983927
17 0.0
18 0.0
19 0.0
20 0.001193573088350
21 0.001193573088350
22 -0.002387146176699
23 0.0
24 0.0
25 0.0
26 0.79174447340001
27 -0.11491750392237
28 -0.17081454832550
29 -0.000931896456811
30 0.0
31 0.0
32 -0.012769773097216
33 0.0
34 0.0
35 -0.013390681866184
36 0.0
37 0.0
38 -0.007671179556147
39 -0.000240807991963
40 -0.000240807991963
41 0.000481615983927
42 0.0
43 0.0
44 0.0
45 0.001193573088350
46 0.001193573088350
47 -0.002387146176699
48 0.0
49 0.0
50 0.0
 Sym=      1.5
 Ene=       0.0527
 Spin= Alpha
 Occup=    0.000000
1 0.063879154404023
2 0.63164083739708
3 5.20253177654054
4 5.14864113823038
5 0.0
6 0.0
7 0.001719292167986
8 0.0
9 0.0
10 0.24248255512056
11 0.0
12 0.0
13 1.32166412466472
14 -0.004482314389909
15 -0.004482314389909
16 0.008964628779817
17 0.0
18 0.0
19 0.0
20 -0.043692235105676
21 -0.043692235105676
22 0.087384470211352
23 0.0
24 0.0
25 0.0
26 -0.063879154404023
27 -0.63164083739708
28 -5.20253177654054
29 -5.14864113823038
30 0.0
31 0.0
32 0.001719292167986
33 0.0
34 0.0
35 0.24248255512056
36 0.0
37 0.0
38 1.32166412466472
39 0.004482314389909
40 0.004482314389909
41 -0.008964628779817
42 0.0
43 0.0
44 0.0
45 0.043692235105676
46 0.043692235105676
47 -0.087384470211352
48 0.0
49 0.0
50 0.0
 Sym=      2.1
 Ene=       0.0530
 Spin= Alpha
 Occup=    0.000000
1 -0.15970248239681
2 0.10662873144760
3 -0.32772705568227
4 0.70105442722500
5 0.0
6 0.0
7 0.001795404886634
8 0.0
9 0.0
10 -0.035466779606575
11 0.0
12 0.0
13 0.067027543940327
14 0.001740353371119
15 0.001740353371119
16 -0.003480706742238
17 0.0
18 0.0
19 0.0
20 0.004312890924752
21 0.004312890924752
22 -0.008625781849504
23 0.0
24 0.0
25 0.0
26 -0.15970248239681
27 0.10662873144760
28 -0.32772705568227
29 0.70105442722500
30 0.0
31 0.0
32 -0.001795404886634
33 0.0
34 0.0
35 0.035466779606575
36 0.0
37 0.0
38 -0.067027543940327
39 0.001740353371119
40 0.001740353371119
41 -0.003480706742238
42 0.0
43 0.0
44 0.0
45 0.004312890924752
46 0.004312890924752
47 -0.008625781849504
48 0.0
49 0.0
50 0.0
 Sym=      2.5
 Ene=       0.1912
 Spin= Alpha
 Occup=    0.000000
1 -0.21709949047379
2 2.11801431430671
3 21.6101816997353
4 3.92715641176950
5 0.0
6 0.0
7 0.017105821507606
8 0.0
9 0.0
10 0.86197374896854
11 0.0
12 0.0
13 5.73165162106225
14 -0.013974564368558
15 -0.013974564368558
16 0.027949128737117
17 0.0
18 0.0
19 0.0
20 -0.15188415256537
21 -0.15188415256537
22 0.30376830513074
23 0.0
24 0.0
25 0.0
26 0.21709949047379
27 -2.11801431430671
28 -21.6101816997353
29 -3.92715641176950
30 0.0
31 0.0
32 0.017105821507606
33 0.0
34 0.0
35 0.86197374896854
36 0.0
37 0.0
38 5.73165162106225
39 0.013974564368558
40 0.013974564368558
41 -0.027949128737117
42 0.0
43 0.0
44 0.0
45 0.15188415256537
46 0.15188415256537
47 -0.30376830513074
48 0.0
49 0.0
50 0.0
 Sym=      1.3
 Ene=       0.2091
 Spin= Alpha
 Occup=    0.000000
1 0.0
2 0.0
3 0.0
4 0.0
5 0.0
6 0.024463130990268
7 0.0
8 0.0
9 -0.058588858443873
10 0.0
11 0.0
12 0.54151909027088
13 0.0
14 0.0
15 0.0
16 0.0
17 0.0
18 0.0
19 0.003034609536853
20 0.0
21 0.0
22 0.0
23 0.0
24 0.0
25 -0.007095227735511
26 0.0
27 0.0
28 0.0
29 0.0
30 0.0
31 0.024463130990268
32 0.0
33 0.0
34 -0.058588858443873
35 0.0
36 0.0
37 0.54151909027088
38 0.0
39 0.0
40 0.0
41 0.0
42 0.0
43 0.0
44 -0.003034609536853
45 0.0
46 0.0
47 0.0
48 0.0
49 0.0
50 0.007095227735511
 Sym=      1.2
 Ene=       0.2091
 Spin= Alpha
 Occup=    0.000000
1 0.0
2 0.0
3 0.0
4 0.0
5 0.024463130990268
6 0.0
7 0.0
8 -0.058588858443873
9 0.0
10 0.0
11 0.54151909027088
12 0.0
13 0.0
14 0.0
15 0.0
16 0.0
17 0.0
18 0.003034609536853
19 0.0
20 0.0
21 0.0
22 0.0
23 0.0
24 -0.007095227735511
25 0.0
26 0.0
27 0.0
28 0.0
29 0.0
30 0.024463130990268
31 0.0
32 0.0
33 -0.058588858443873
34 0.0
35 0.0
36 0.54151909027088
37 0.0
38 0.0
39 0.0
40 0.0
41 0.0
42 0.0
43 -0.003034609536853
44 0.0
45 0.0
46 0.0
47 0.0
48 0.0
49 0.007095227735511
50 0.0
 Sym=      3.1
 Ene=       0.2847
 Spin= Alpha
 Occup=    0.000000
1 0.091813397059606
2 -0.36333490602493
3 -0.71063030600826
4 0.38181280622644
5 0.0
6 0.0
7 -0.002231108627893
8 0.0
9 0.0
10 0.13449639568483
11 0.0
12 0.0
13 2.36758247308097
14 0.003458548266650
15 0.003458548266650
16 -0.006917096533299
17 0.0
18 0.0
19 0.0
20 -0.16787058157943
21 -0.16787058157943
22 0.33574116315886
23 0.0
24 0.0
25 0.0
26 0.091813397059606
27 -0.36333490602493
28 -0.71063030600826
29 0.38181280622644
30 0.0
31 0.0
32 0.002231108627893
33 0.0
34 0.0
35 -0.13449639568483
36 0.0
37 0.0
38 -2.36758247308097
39 0.003458548266650
40 0.003458548266650
41 -0.006917096533299
42 0.0
43 0.0
44 0.0
45 -0.16787058157943
46 -0.16787058157943
47 0.33574116315886
48 0.0
49 0.0
50 0.0
 Sym=      1.7
 Ene=       0.2975
 Spin= Alpha
 Occup=    0.000000
1 0.0
2 0.0
3 0.0
4 0.0
5 0.0
6 -0.018205669999902
7 0.0
8 0.0
9 0.39823511198777
10 0.0
11 0.0
12 3.19488261005911
13 0.0
14 0.0
15 0.0
16 0.0
17 0.0
18 0.0
19 0.000128787498893
20 0.0
21 0.0
22 0.0
23 0.0
24 0.0
25 0.44722140365146
26 0.0
27 0.0
28 0.0
29 0.0
30 0.0
31 0.018205669999902
32 0.0
33 0.0
34 -0.39823511198777
35 0.0
36 0.0
37 -3.19488261005911
38 0.0
39 0.0
40 0.0
41 0.0
42 0.0
43 0.0
44 0.000128787498893
45 0.0
46 0.0
47 0.0
48 0.0
49 0.0
50 0.44722140365146
 Sym=      1.6
 Ene=       0.2975
 Spin= Alpha
 Occup=    0.000000
1 0.0
2 0.0
3 0.0
4 0.0
5 -0.018205669999901
6 0.0
7 0.0
8 0.39823511198776
9 0.0
10 0.0
11 3.19488261005910
12 0.0
13 0.0
14 0.0
15 0.0
16 0.0
17 0.0
18 0.000128787498893
19 0.0
20 0.0
21 0.0
22 0.0
23 0.0
24 0.44722140365145
25 0.0
26 0.0
27 0.0
28 0.0
29 0.0
30 0.018205669999901
31 0.0
32 0.0
33 -0.39823511198776
34 0.0
35 0.0
36 -3.19488261005910
37 0.0
38 0.0
39 0.0
40 0.0
41 0.0
42 0.0
43 0.000128787498893
44 0.0
45 0.0
46 0.0
47 0.0
48 0.0
49 0.44722140365145
50 0.0
 Sym=      4.1
 Ene=       0.4168
 Spin= Alpha
 Occup=    0.000000
1 -0.34196354358063
2 -1.16188932737356
3 1.29129663474166
4 -0.30673788413056
5 0.0
6 0.0
7 -0.046712994892392
8 0.0
9 0.0
10 0.33069573891389
11 0.0
12 0.0
13 1.36914175795658
14 -0.007325622177119
15 -0.007325622177119
16 0.014651244354238
17 0.0
18 0.0
19 0.0
20 -0.19813198629428
21 -0.19813198629428
22 0.39626397258855
23 0.0
24 0.0
25 0.0
26 -0.34196354358063
27 -1.16188932737356
28 1.29129663474166
29 -0.30673788413056
30 0.0
31 0.0
32 0.046712994892392
33 0.0
34 0.0
35 -0.33069573891389
36 0.0
37 0.0
38 -1.36914175795658
39 -0.007325622177119
40 -0.007325622177119
41 0.014651244354238
42 0.0
43 0.0
44 0.0
45 -0.19813198629428
46 -0.19813198629428
47 0.39626397258855
48 0.0
49 0.0
50 0.0
 Sym=      3.5
 Ene=       0.4220
 Spin= Alpha
 Occup=    0.000000
1 0.36999330878457
2 2.02058760666754
3 64.5406946972605
4 2.61538529540121
5 0.0
6 0.0
7 -0.033816798709734
8 0.0
9 0.0
10 0.90506809538134
11 0.0
12 0.0
13 15.2067864943340
14 -0.002339175288382
15 -0.002339175288382
16 0.004678350576764
17 0.0
18 0.0
19 0.0
20 -0.22274819113399
21 -0.22274819113399
22 0.44549638226798
23 0.0
24 0.0
25 0.0
26 -0.36999330878457
27 -2.02058760666754
28 -64.5406946972605
29 -2.61538529540121
30 0.0
31 0.0
32 -0.033816798709734
33 0.0
34 0.0
35 0.90506809538134
36 0.0
37 0.0
38 15.2067864943340
39 0.002339175288382
40 0.002339175288382
41 -0.004678350576764
42 0.0
43 0.0
44 0.0
45 0.22274819113399
46 0.22274819113399
47 -0.44549638226798
48 0.0
49 0.0
50 0.0
 Sym=      4.5
 Ene=       0.7359
 Spin= Alpha
 Occup=    0.000000
1 -0.39839839375972
2 -10.2452037820309
3 26.0955179298161
4 -0.74737983108218
5 0.0
6 0.0
7 -0.12955332466275
8 0.0
9 0.0
10 -3.36701824236479
11 0.0
12 0.0
13 5.21472864848471
14 0.090129323937363
15 0.090129323937362
16 -0.18025864787472
17 0.0
18 0.0
19 0.0
20 0.54239678928362
21 0.54239678928362
22 -1.08479357856725
23 0.0
24 0.0
25 0.0
26 0.39839839375972
27 10.2452037820309
28 -26.0955179298161
29 0.74737983108218
30 0.0
31 0.0
32 -0.12955332466275
33 0.0
34 0.0
35 -3.36701824236479
36 0.0
37 0.0
38 5.21472864848471
39 -0.090129323937363
40 -0.090129323937362
41 0.18025864787472
42 0.0
43 0.0
44 0.0
45 -0.54239678928362
46 -0.54239678928362
47 1.08479357856725
48 0.0
49 0.0
50 0.0
 Sym=      1.4
 Ene=       0.7918
 Spin= Alpha
 Occup=    0.000000
1 0.0
2 0.0
3 0.0
4 0.0
5 0.0
6 0.0
7 0.0
8 0.0
9 0.0
10 0.0
11 0.0
12 0.0
13 0.0
14 0.0
15 0.0
16 0.0
17 -0.048443318224284
18 0.0
19 0.0
20 0.0
21 0.0
22 0.0
23 0.54677353583525
24 0.0
25 0.0
26 0.0
27 0.0
28 0.0
29 0.0
30 0.0
31 0.0
32 0.0
33 0.0
34 0.0
35 0.0
36 0.0
37 0.0
38 0.0
39 0.0
40 0.0
41 0.0
42 -0.048443318224284
43 0.0
44 0.0
45 0.0
46 0.0
47 0.0
48 0.54677353583525
49 0.0
50 0.0
 Sym=      5.1
 Ene=       0.7918
 Spin= Alpha
 Occup=    0.000000
1 0.000000000000000
2 -0.000000000000001
3 -0.000000000000001
4 0.000000000000001
5 0.0
6 0.0
7 -0.000000000000000
8 0.0
9 0.0
10 0.000000000000001
11 0.0
12 0.0
13 0.000000000000003
14 -0.041953144225834
15 0.041953144225833
16 0.000000000000000
17 0.0
18 0.0
19 0.0
20 0.47351977215036
21 -0.47351977215037
22 0.000000000000001
23 0.0
24 0.0
25 0.0
26 0.000000000000000
27 -0.000000000000001
28 -0.000000000000001
29 0.000000000000001
30 0.0
31 0.0
32 0.000000000000000
33 0.0
34 0.0
35 -0.000000000000001
36 0.0
37 0.0
38 -0.000000000000003
39 -0.041953144225834
40 0.041953144225833
41 0.000000000000000
42 0.0
43 0.0
44 0.0
45 0.47351977215036
46 -0.47351977215037
47 0.000000000000001
48 0.0
49 0.0
50 0.0
 Sym=      2.7
 Ene=       0.8843
 Spin= Alpha
 Occup=    0.000000
1 0.0
2 0.0
3 0.0
4 0.0
5 0.0
6 -0.065616105685494
7 0.0
8 0.0
9 1.18560550237872
10 0.0
11 0.0
12 2.71422745615793
13 0.0
14 0.0
15 0.0
16 0.0
17 0.0
18 0.0
19 0.015428873086364
20 0.0
21 0.0
22 0.0
23 0.0
24 0.0
25 1.48177798331115
26 0.0
27 0.0
28 0.0
29 0.0
30 0.0
31 0.065616105685494
32 0.0
33 0.0
34 -1.18560550237872
35 0.0
36 0.0
37 -2.71422745615793
38 0.0
39 0.0
40 0.0
41 0.0
42 0.0
43 0.0
44 0.015428873086364
45 0.0
46 0.0
47 0.0
48 0.0
49 0.0
50 1.48177798331115
 Sym=      2.6
 Ene=       0.8843
 Spin= Alpha
 Occup=    0.000000
1 0.0
2 0.0
3 0.0
4 0.0
5 -0.065616105685494
6 0.0
7 0.0
8 1.18560550237873
9 0.0
10 0.0
11 2.71422745615794
12 0.0
13 0.0
14 0.0
15 0.0
16 0.0
17 0.0
18 0.015428873086363
19 0.0
20 0.0
21 0.0
22 0.0
23 0.0
24 1.48177798331116
25 0.0
26 0.0
27 0.0
28 0.0
29 0.0
30 0.065616105685494
31 0.0
32 0.0
33 -1.18560550237873
34 0.0
35 0.0
36 -2.71422745615794
37 0.0
38 0.0
39 0.0
40 0.0
41 0.0
42 0.0
43 0.015428873086363
44 0.0
45 0.0
46 0.0
47 0.0
48 0.0
49 1.48177798331116
50 0.0
 Sym=      6.1
 Ene=       0.9043
 Spin= Alpha
 Occup=    0.000000
1 -0.11460916948200
2 -0.94304425852591
3 0.17574911642960
4 0.13340996722207
5 0.0
6 0.0
7 -0.035877316227319
8 0.0
9 0.0
10 0.33887481282815
11 0.0
12 0.0
13 2.12850533041180
14 0.006709956633637
15 0.006709956633637
16 -0.013419913267274
17 0.0
18 0.0
19 0.0
20 -0.61575238341767
21 -0.61575238341767
22 1.23150476683534
23 0.0
24 0.0
25 0.0
26 -0.11460916948200
27 -0.94304425852591
28 0.17574911642960
29 0.13340996722207
30 0.0
31 0.0
32 0.035877316227319
33 0.0
34 0.0
35 -0.33887481282815
36 0.0
37 0.0
38 -2.12850533041180
39 0.006709956633637
40 0.006709956633637
41 -0.013419913267274
42 0.0
43 0.0
44 0.0
45 -0.61575238341767
46 -0.61575238341767
47 1.23150476683534
48 0.0
49 0.0
50 0.0
 Sym=      2.3
 Ene=       0.9322
 Spin= Alpha
 Occup=    0.000000
1 0.0
2 0.0
3 0.0
4 0.0
5 0.0
6 -0.049269462804202
7 0.0
8 0.0
9 0.63387935633564
10 0.0
11 0.0
12 -0.35458996500186
13 0.0
14 0.0
15 0.0
16 0.0
17 0.0
18 0.0
19 -0.017427891947070
20 0.0
21 0.0
22 0.0
23 0.0
24 0.0
25 0.20421521351526
26 0.0
27 0.0
28 0.0
29 0.0
30 0.0
31 -0.049269462804202
32 0.0
33 0.0
34 0.63387935633564
35 0.0
36 0.0
37 -0.35458996500186
38 0.0
39 0.0
40 0.0
41 0.0
42 0.0
43 0.0
44 0.017427891947070
45 0.0
46 0.0
47 0.0
48 0.0
49 0.0
50 -0.20421521351526
 Sym=      2.2
 Ene=       0.9322
 Spin= Alpha
 Occup=    0.000000
1 0.0
2 0.0
3 0.0
4 0.0
5 -0.049269462804202
6 0.0
7 0.0
8 0.63387935633564
9 0.0
10 0.0
11 -0.35458996500186
12 0.0
13 0.0
14 0.0
15 0.0
16 0.0
17 0.0
18 -0.017427891947070
19 0.0
20 0.0
21 0.0
22 0.0
23 0.0
24 0.20421521351526
25 0.0
26 0.0
27 0.0
28 0.0
29 0.0
30 -0.049269462804202
31 0.0
32 0.0
33 0.63387935633564
34 0.0
35 0.0
36 -0.35458996500186
37 0.0
38 0.0
39 0.0
40 0.0
41 0.0
42 0.0
43 0.017427891947070
44 0.0
45 0.0
46 0.0
47 0.0
48 0.0
49 -0.20421521351526
50 0.0
 Sym=      1.8
 Ene=       1.0489
 Spin= Alpha
 Occup=    0.000000
1 0.0
2 0.0
3 0.0
4 0.0
5 0.0
6 0.0
7 0.0
8 0.0
9 0.0
10 0.0
11 0.0
12 0.0
13 0.0
14 0.0
15 0.0
16 0.0
17 -0.062547343311779
18 0.0
19 0.0
20 0.0
21 0.0
22 0.0
23 1.57503742643386
24 0.0
25 0.0
26 0.0
27 0.0
28 0.0
29 0.0
30 0.0
31 0.0
32 0.0
33 0.0
34 0.0
35 0.0
36 0.0
37 0.0
38 0.0
39 0.0
40 0.0
41 0.0
42 0.062547343311779
43 0.0
44 0.0
45 0.0
46 0.0
47 0.0
48 -1.57503742643386
49 0.0
50 0.0
 Sym=      5.5
 Ene=       1.0489
 Spin= Alpha
 Occup=    0.000000
1 0.000000000000002
2 -0.000000000000062
3 -0.000000000000258
4 -0.000000000000009
5 0.0
6 0.0
7 0.000000000000000
8 0.0
9 0.0
10 -0.000000000000027
11 0.0
12 0.0
13 -0.000000000000060
14 -0.054167588247227
15 0.054167588247228
16 -0.000000000000001
17 0.0
18 0.0
19 0.0
20 1.36402242320299
21 -1.36402242320298
22 -0.000000000000010
23 0.0
24 0.0
25 0.0
26 -0.000000000000002
27 0.000000000000062
28 0.000000000000258
29 0.000000000000009
30 0.0
31 0.0
32 0.000000000000000
33 0.0
34 0.0
35 -0.000000000000027
36 0.0
37 0.0
38 -0.000000000000060
39 0.054167588247227
40 -0.054167588247228
41 0.000000000000001
42 0.0
43 0.0
44 0.0
45 -1.36402242320299
46 1.36402242320298
47 0.000000000000010
48 0.0
49 0.0
50 0.0
 Sym=      6.5
 Ene=       1.0507
 Spin= Alpha
 Occup=    0.000000
1 -0.43368584817891
2 11.2404165856694
3 50.3479813611309
4 1.67382623467252
5 0.0
6 0.0
7 0.021418352776240
8 0.0
9 0.0
10 4.68290906987864
11 0.0
12 0.0
13 11.7554903808972
14 -0.058090967851394
15 -0.058090967851393
16 0.11618193570279
17 0.0
18 0.0
19 0.0
20 -1.03739836292680
21 -1.03739836292681
22 2.07479672585360
23 0.0
24 0.0
25 0.0
26 0.43368584817891
27 -11.2404165856694
28 -50.3479813611309
29 -1.67382623467252
30 0.0
31 0.0
32 0.021418352776240
33 0.0
34 0.0
35 4.68290906987864
36 0.0
37 0.0
38 11.7554903808972
39 0.058090967851394
40 0.058090967851393
41 -0.11618193570279
42 0.0
43 0.0
44 0.0
45 1.03739836292680
46 1.03739836292681
47 -2.07479672585360
48 0.0
49 0.0
50 0.0
 Sym=      3.2
 Ene=       1.0675
 Spin= Alpha
 Occup=    0.000000
1 0.0
2 0.0
3 0.0
4 0.0
5 0.054466303041424
6 0.0
7 0.0
8 -0.62626946790506
9 0.0
10 0.0
11 0.18074120492165
12 0.0
13 0.0
14 0.0
15 0.0
16 0.0
17 0.0
18 -0.040895060302084
19 0.0
20 0.0
21 0.0
22 0.0
23 0.0
24 1.17456914802455
25 0.0
26 0.0
27 0.0
28 0.0
29 0.0
30 0.054466303041424
31 0.0
32 0.0
33 -0.62626946790506
34 0.0
35 0.0
36 0.18074120492165
37 0.0
38 0.0
39 0.0
40 0.0
41 0.0
42 0.0
43 0.040895060302084
44 0.0
45 0.0
46 0.0
47 0.0
48 0.0
49 -1.17456914802455
50 0.0
 Sym=      3.3
 Ene=       1.0675
 Spin= Alpha
 Occup=    0.000000
1 0.0
2 0.0
3 0.0
4 0.0
5 0.0
6 0.054466303041424
7 0.0
8 0.0
9 -0.62626946790506
10 0.0
11 0.0
12 0.18074120492165
13 0.0
14 0.0
15 0.0
16 0.0
17 0.0
18 0.0
19 -0.040895060302084
20 0.0
21 0.0
22 0.0
23 0.0
24 0.0
25 1.17456914802455
26 0.0
27 0.0
28 0.0
29 0.0
30 0.0
31 0.054466303041424
32 0.0
33 0.0
34 -0.62626946790506
35 0.0
36 0.0
37 0.18074120492165
38 0.0
39 0.0
40 0.0
41 0.0
42 0.0
43 0.0
44 0.040895060302084
45 0.0
46 0.0
47 0.0
48 0.0
49 0.0
50 -1.17456914802455
 Sym=      7.1
 Ene=       1.5238
 Spin= Alpha
 Occup=    0.000000
1 0.70935800541969
2 -2.44471755023725
3 0.82298357225826
4 -0.14729828427609
5 0.0
6 0.0
7 -0.11154094651310
8 0.0
9 0.0
10 1.75779325359167
11 0.0
12 0.0
13 1.20246962878992
14 -0.035152039363631
15 -0.035152039363631
16 0.070304078727263
17 0.0
18 0.0
19 0.0
20 -0.55700614951817
21 -0.55700614951817
22 1.11401229903634
23 0.0
24 0.0
25 0.0
26 0.70935800541969
27 -2.44471755023725
28 0.82298357225826
29 -0.14729828427609
30 0.0
31 0.0
32 0.11154094651310
33 0.0
34 0.0
35 -1.75779325359167
36 0.0
37 0.0
38 -1.20246962878992
39 -0.035152039363631
40 -0.035152039363631
41 0.070304078727263
42 0.0
43 0.0
44 0.0
45 -0.55700614951817
46 -0.55700614951817
47 1.11401229903634
48 0.0
49 0.0
50 0.0
 Sym=      3.6
 Ene=       1.9427
 Spin= Alpha
 Occup=    0.000000
1 0.0
2 0.0
3 0.0
4 0.0
5 -0.10316890437872
6 0.0
7 0.0
8 3.78192843716081
9 0.0
10 0.0
11 1.83594504466668
12 0.0
13 0.0
14 0.0
15 0.0
16 0.0
17 0.0
18 0.096082007345150
19 0.0
20 0.0
21 0.0
22 0.0
23 0.0
24 1.77620333461473
25 0.0
26 0.0
27 0.0
28 0.0
29 0.0
30 0.10316890437872
31 0.0
32 0.0
33 -3.78192843716081
34 0.0
35 0.0
36 -1.83594504466668
37 0.0
38 0.0
39 0.0
40 0.0
41 0.0
42 0.0
43 0.096082007345150
44 0.0
45 0.0
46 0.0
47 0.0
48 0.0
49 1.77620333461473
50 0.0
 Sym=      3.7
 Ene=       1.9427
 Spin= Alpha
 Occup=    0.000000
1 0.0
2 0.0
3 0.0
4 0.0
5 0.0
6 -0.10316890437872
7 0.0
8 0.0
9 3.78192843716081
10 0.0
11 0.0
12 1.83594504466668
13 0.0
14 0.0
15 0.0
16 0.0
17 0.0
18 0.0
19 0.096082007345149
20 0.0
21 0.0
22 0.0
23 0.0
24 0.0
25 1.77620333461473
26 0.0
27 0.0
28 0.0
29 0.0
30 0.0
31 0.10316890437872
32 0.0
33 0.0
34 -3.78192843716081
35 0.0
36 0.0
37 -1.83594504466668
38 0.0
39 0.0
40 0.0
41 0.0
42 0.0
43 0.0
44 0.096082007345149
45 0.0
46 0.0
47 0.0
48 0.0
49 0.0
50 1.77620333461473
 Sym=      7.5
 Ene=       2.1082
 Spin= Alpha
 Occup=    0.000000
1 -0.73082116032285
2 30.1392638838036
3 -2.07754899060890
4 0.89275137739260
5 0.0
6 0.0
7 0.35293057047135
8 0.0
9 0.0
10 12.6011634899574
11 0.0
12 0.0
13 0.098404592859948
14 -0.25986907768354
15 -0.25986907768354
16 0.51973815536709
17 0.0
18 0.0
19 0.0
20 -0.88738351765969
21 -0.88738351765969
22 1.77476703531938
23 0.0
24 0.0
25 0.0
26 0.73082116032285
27 -30.1392638838036
28 2.07754899060890
29 -0.89275137739260
30 0.0
31 0.0
32 0.35293057047135
33 0.0
34 0.0
35 12.6011634899574
36 0.0
37 0.0
38 0.098404592859948
39 0.25986907768354
40 0.25986907768354
41 -0.51973815536709
42 0.0
43 0.0
44 0.0
45 0.88738351765969
46 0.88738351765969
47 -1.77476703531938
48 0.0
49 0.0
50 0.0
 Sym=      8.5
 Ene=       2.6092
 Spin= Alpha
 Occup=    0.000000
1 -2.55231950728594
2 -5.84401505682064
3 -30.0745561905239
4 -0.57663778393938
5 0.0
6 0.0
7 0.50151578056983
8 0.0
9 0.0
10 -3.95824794916053
11 0.0
12 0.0
13 -7.01837653536746
14 -0.16314946306597
15 -0.16314946306597
16 0.32629892613195
17 0.0
18 0.0
19 0.0
20 0.55716956901306
21 0.55716956901306
22 -1.11433913802613
23 0.0
24 0.0
25 0.0
26 2.55231950728594
27 5.84401505682064
28 30.0745561905239
29 0.57663778393938
30 0.0
31 0.0
32 0.50151578056983
33 0.0
34 0.0
35 -3.95824794916053
36 0.0
37 0.0
38 -7.01837653536746
39 0.16314946306597
40 0.16314946306597
41 -0.32629892613195
42 0.0
43 0.0
44 0.0
45 -0.55716956901306
46 -0.55716956901306
47 1.11433913802613
48 0.0
49 0.0
50 0.0
 Sym=      8.1
 Ene=       2.9396
 Spin= Alpha
 Occup=    0.000000
1 3.85879975477660
2 -2.03695547331070
3 -1.37950302771468
4 -0.10776541309465
5 0.0
6 0.0
7 -0.069680833835591
8 0.0
9 0.0
10 -0.85009911156218
11 0.0
12 0.0