[Molden Format]
[Molpro variables]
_NUMVAR=  788.0000000000000    
_AVOGAD= 0.6022136736000000E+24
_BOLTZ= 0.1380658000000000E-22
_CLIGHT=  29979245800.00000    
_EV2006= 0.3674930886769165E-01
_EV= 0.3674932534394180E-01
_ENULL= 0.8854187817000000E-11
_KJOULE= 0.3808798324128737E-03
_KJOULE/MOL= 0.3808798324128737E-03
_CM= 0.4556335267302901E-05
_CM-1= 0.4556335267302901E-05
_DEB2SI= 0.3335641000000000E-29
_AMU2AU=  1822.888390000000    
_KCAL= 0.1593601117815568E-02
_KCAL/MOL= 0.1593601117815568E-02
_KELVIN2006= 0.3166828861084835E-05
_KELVIN= 0.3166814820820034E-05
_JOULE= 0.4359748200000000E-17
_HERTZ2006= 0.1519829850815779E-15
_HERTZ= 0.1519829846011223E-15
_HZ2006= 0.1519829850815779E-15
_HZ= 0.1519829846011223E-15
_JPCAL=  4.184000000000000    
_PLANCK= 0.6626075540000000E-33
_TOA2006= 0.5291772490000000    
_TOA= 0.5291772090000000    
_TOANG2006= 0.5291772490000000    
_TOANG= 0.5291772090000000    
_TORAD= 0.1745329251994330E-01
_TOCM=  219474.6306700000    
_TODEBYE=  2.541580000000000    
_TOEV2006=  27.21139610000000    
_TOE= 0.4803242000000000E-09
_TOEV=  27.21138390000000    
_TOHERTZ2006=  6579683899900000.    
_TOHERTZ=  6579683920700000.    
_TOHZ2006=  6579683899900000.    
_TOHZ=  6579683920700000.    
_TOK2006=  315773.3000000000    
_TOK=  315774.7000000000    
_TOKCAL=  627.5096000000000    
_TOKELVIN2006=  315773.3000000000    
_TOKELVIN=  315774.7000000000    
_TOKJ=  2625.500000000000    
_TOKJOULE=  2625.500000000000    
_TOKG= 0.1660565586000000E-26
_ANG2006=  1.889725988578923    
_ANG=  1.889726131421507    
_ANGSTROM2006=  1.889725988578923    
_ANGSTROM=  1.889726131421507    
_RPAREF=  0.000000000000000    
_RPADISS=  0.000000000000000    
_IGNORE_UNDEF=  2.000000000000000    
_STRICTCHECK=  0.000000000000000    
_SEW_ONEEL=  0.000000000000000    
_CPPDONE=FALSE
_DKROLL_DONE=  0.000000000000000    
_FOCKDONE=TRUE
_GRADONE=FALSE
_HESSDONE=FALSE
_INTDONE=TRUE
_SCFDONE=TRUE
_MODUL_BLOCK=FALSE
_MODUL_CUDA=FALSE
_MODUL_SLATER=FALSE
_MODUL_MRCC=FALSE
_MODUL_NBO6=FALSE
_MODUL_NECI=TRUE
_MODUL_AIMS=TRUE
_MRCC_EXEC=
_FITC_AO_SAVED=FALSE
_FITC_MO_SAVED=FALSE
_SHARED_FS=TRUE
_LSTYP=SEWARD
_INTYP=INTS
_GEOMTYP=ZMAT
_GRADTYP=ALASKA
_DIRECT=FALSE
_DKHO= -1.000000000000000    
_SYNCM=  0.000000000000000    
_BASIS=$BSET
_ZORIENT=  1.000000000000000    
_NELEC=  2.000000000000000    
!SPIN=  0.000000000000000    
_QSDSTEP=  0.000000000000000    
_QSDIRC=  0.000000000000000    
_PROGRAM=HF
_CPUSTEP=  0.000000000000000    
_SYSSTEP=  0.000000000000000    
_WALLSTEP= 0.1000000000000000E-01
!DFSCF=  0.000000000000000    
!SCSGRD=  0.000000000000000    
_BASINP=  610.0000000000000    
_CPUTOT= 0.1000000000000000    
_CPUSORT= 0.2000000000000000E-01
_SYSSORT= 0.1000000000000000E-01
_WALLSORT= 0.2999999746680260E-01
_DFTEXFAC=  1.000000000000000    
_DMX=  0.000000000000000    
_DMY=  0.000000000000000    
_DMZ=  0.000000000000000    
_DMX_SCF=  0.000000000000000    
_DMY_SCF=  0.000000000000000    
_DMZ_SCF=  0.000000000000000    
_EHOMO=-0.5946944960702070    
_ELUMO= 0.6157169480810906E-01
_ENERGY= -1.128675031035978    
_ENUC= 0.7211961436142112    
_GRADEXFAC=  9999.000000000000    
_GRADMETHOD=  1.000000000000000    
_NMRMETHOD=  0.000000000000000    
!GRID_FREEZE= -1.000000000000000    
_ITERATIONS=  7.000000000000000    
_LASTNELEC=  2.000000000000000    
_LASTSPIN=  0.000000000000000    
_LASTSYM=  1.000000000000000    
_MPP_PROG=  0.000000000000000    
_NPROC_MPP=  1.000000000000000    
_NPROC_MPPX=  1.000000000000000    
_NPROC_SMP=  1.000000000000000    
_NUMSTEP=  0.000000000000000    
_ORBITAL=  2100.200000000000    
_PI=  3.141592653589793    
_SEIG_MIN= 0.2773965123299507E-03
_SEWPROP=TRUE
_STATUS=  1.000000000000000    
_SYSTOT= 0.3000000000000000E-01
_VERSION=  2012001.000000000    
_WALLTOT= 0.1900000000000000    
_DATE=28-Aug-15
_LASTORB=RHF
_MACHINE=Linux-3.2.0-89-generic/sce-chem-c01105(x86_64) 64 bit serial version
_OUTPUT=/home/s1267651/phd_mini_24Aug2015/nikolaz/molpro2/AB.xml
_PGROUP=D2h
_TIME=16:04:24
_LIBMOL=/usr/local/molpro/molprop_2012_1_Linux_x86_64_i8/lib/
!VIBCNT=  0.000000000000000    
!RGHFCNT=  0.000000000000000    
!SURFREC=  0.000000000000000    
!POLYREC=  0.000000000000000    
!DIPREC=  0.000000000000000    
!VSCFREC=  0.000000000000000    
!VCIREC=  0.000000000000000    
!PVCIREC=  0.000000000000000    
!VMP2REC=  0.000000000000000    
!VMCSCFREC=  0.000000000000000    
!VMRCIREC=  0.000000000000000    
!VIBINFO=  0.000000000000000    
!GAREC=  0.000000000000000    
!SCFORB=  21002.00000000000    
!NEWMOL= -1.000000000000000    
!NEWSYM= -1.000000000000000    
_SLFILES=slscratch
_NGSSTO=  9.000000000000000    
_SIN=SIN
_COS=COS
_TAN=TAN
_ACOS=ACOS
_ASIN=ASIN
_ATAN=ATAN
_COSH=COSH
_SINH=SINH
_TANH=TANH
_ABS=ABS
_MOD=MOD
_ERF=ERF
_REFC=REFC
_ERFC=ERFC
_HYPOT=HYPOT
_J0=J0
_J1=J1
_JN=JN
_GAMMA=GAMMA
_LGAMMA=LGAMMA
_Y0=Y0
_Y1=Y1
_YN=YN
_EXP=EXP
_LOG=LOG
_LOG10=LOG10
_SQRT=SQRT
_INT=INT
_NINT=NINT
_MAX=MAX
_MIN=MIN
_COSMO=  0.000000000000000    
_COSMOIT=  0.000000000000000    
_COSMOES=  0.000000000000000    
_COSMOEDS=  0.000000000000000    
_COSMOEC=  0.000000000000000    
_COSMOEDCORR=  0.000000000000000    
_FEPSI=  1.000000000000000    
_SL_IsMM=  0.000000000000000    
_SL_NSYM=  8.000000000000000    
_SL_System_BitSw=  0.000000000000000    
_SL_Unique_atoms=  0.000000000000000    
_SL_GRAD=  0.000000000000000    
_SL_MAXUPD_Hess=  5.000000000000000    
_SL_N_PRINT_COD=  5.000000000000000    
_SL_PRINT_CODES=  0.000000000000000    
_SL_BasType=  0.000000000000000    
_SL_Energy_Pred=  0.000000000000000    
_SL_New_Coords=  0.000000000000000    
_SL_Total_Nuclea=  0.000000000000000    
_SL_Highest_Mltp=  0.000000000000000    
_SL_Ref_Geom=  0.000000000000000    
_SL_Symmetry_ope=  1.000000000000000    
_SL_agrad=  0.000000000000000    
_SL_GrdMax=  0.000000000000000    
_SL_GrdNorm=  0.000000000000000    
_SL_GrdRMS=  0.000000000000000    
_SL_Hss_Q=  0.000000000000000    
_SL_Hss_X=  0.000000000000000    
_SL_BMxOld=  0.000000000000000    
_SL_KtB=  0.000000000000000    
!LATTICE= -1.000000000000000    
!NEWLATTICE=  0.000000000000000    
!LATGRAD_VAR=FALSE
!SEW_LATTICE=  1.000000000000000    
!LOCAL=  0.000000000000000    
!SAVEDOM= -1.000000000000000    
!RESTDOM= -1.000000000000000    
!SAVEDOM_HF= -1.000000000000000    
!RESTDOM_HF= -1.000000000000000    
!HESSREC=  0.000000000000000    
!FREQREC=  0.000000000000000    
!NMODREC=  0.000000000000000    
!GTASKS=  0.000000000000000    
!HTASKS=  0.000000000000000    
!THRCHG= 0.1000000000000000    
!DEBUG= -1.000000000000000    
!CFIT_CPHF=  0.000000000000000    
!RDOMAUX_CPHF=  3.000000000000000    
!THRAO_CPHF= 0.1000000000000000E-09
!THRMO_CPHF= 0.1000000000000000E-08
!THROV_CPHF= 0.1000000000000000E-11
!THRSW_CPHF= 0.1000000000000000E-09
!THRPROD_CPHF= 0.1000000000000000E-08
!THRAOPR_CPHF= 0.1000000000000000E-11
!CFIT_SCFGRD=  0.000000000000000    
!RDOMAUX_SCFGRD=  5.000000000000000    
!THRAO_SCFGRD= 0.1000000000000000E-09
!THRMO_SCFGRD= 0.1000000000000000E-08
!THROV_SCFGRD= 0.1000000000000000E-11
!THRSW_SCFGRD= 0.1000000000000000E-09
!THRPROD_SCFGRD= 0.1000000000000000E-08
!THRAOPR_SCFGRD= 0.1000000000000000E-11
!LOCFIT_SCF=  0.000000000000000    
!LOCFIT_MP2= -1.000000000000000    
_RIDOM=  0.000000000000000    
!CC2_METHOD=  0.000000000000000    
_BASIS2006=FALSE
_SVDDEL= -1.000000000000000    
_SVDDELA= -1.000000000000000    
_SVDDELP= -1.000000000000000    
_SVDDELF= -1.000000000000000    
_SVDDELS= -1.000000000000000    
_SVDDEL_ABS= -1.000000000000000    
_SVDDELA_ABS= -1.000000000000000    
_SVDDELP_ABS= -1.000000000000000    
_SVDDELF_ABS= -1.000000000000000    
_SVDDELS_ABS= -1.000000000000000    
_MAXBASIS=  0.000000000000000    
!OPT_CONICAL=  0.000000000000000    
!CLEARSP_JGRID=  0.000000000000000    
_4EXT_NDISKS=  1.000000000000000    
!ZMP=  0.000000000000000    
_MAXIT_ZMP=  500.0000000000000    
_MAXDIS_ZMP=  100.0000000000000    
_ACCU_ZMP=  14.00000000000000    
_SHIFTA_ZMP= -100.0000000000000    
!EMBEDFLAG=  1.000000000000000    
!EMBED=FALSE
!EMBED_F12=FALSE
!EMBEDNUC=  0.000000000000000    
_EMBEDENERGY=  0.000000000000000    
_KSPACETIME=  0.000000000000000    
_RSPACETIME=  0.000000000000000    
!EMBED_DFC=FALSE
!NUM_VOIDS=  0.000000000000000    
_IBODY=  0.000000000000000    
_EMBE_TOTAL=  0.000000000000000    
_EMBE_HF=  0.000000000000000    
_EMBE_CORR=  0.000000000000000    
!EDFT=  0.000000000000000    
_IFASTLATGRAD=  0.000000000000000    
_SINDEX=  0.000000000000000    
A=H
B=H
BSET=AUG-CC-PVDZ
R=  1.386585340000000    
METH=HF
GX1=  0.000000000000000    
GY1=  0.000000000000000    
GZ1=-0.6932926700000001    
GX2=  0.000000000000000    
GY2=  0.000000000000000    
GZ2= 0.6932926700000001    
STR=../input/HH_AUG-CC-PVDZ_HF.mld
[Atoms] Angs
H     1    1         0.0000000000        0.0000000000       -0.3668746801
H     2    1         0.0000000000        0.0000000000        0.3668746801
[GTO]
  1 0
 s    4  1.00
  0.1301000000D+02  0.1968498999D-01
  0.1962000000D+01  0.1379769298D+00
  0.4446000000D+00  0.4781477569D+00
  0.1220000000D+00  0.5012397451D+00
 s    4  1.00
  0.1301000000D+02  0.0000000000D+00
  0.1962000000D+01  0.0000000000D+00
  0.4446000000D+00  0.0000000000D+00
  0.1220000000D+00  0.1000000000D+01
 s    1  1.00
  0.2974000000D-01  0.1000000000D+01
 p    1  1.00
  0.7270000000D+00  0.1000000000D+01
 p    1  1.00
  0.1410000000D+00  0.1000000000D+01
  
  2 0
 s    4  1.00
  0.1301000000D+02  0.1968498999D-01
  0.1962000000D+01  0.1379769298D+00
  0.4446000000D+00  0.4781477569D+00
  0.1220000000D+00  0.5012397451D+00
 s    4  1.00
  0.1301000000D+02  0.0000000000D+00
  0.1962000000D+01  0.0000000000D+00
  0.4446000000D+00  0.0000000000D+00
  0.1220000000D+00  0.1000000000D+01
 s    1  1.00
  0.2974000000D-01  0.1000000000D+01
 p    1  1.00
  0.7270000000D+00  0.1000000000D+01
 p    1  1.00
  0.1410000000D+00  0.1000000000D+01
 
 
[MO]
 Sym=      1.1
 Ene=      -0.5947
 Spin= Alpha
 Occup=    2.000000
1 0.69016558212231
2 -0.17926797742610
3 0.006721198229738
4 0.0
5 0.0
6 0.022312069747418
7 0.0
8 0.0
9 0.001944360871787
10 0.69016558212231
11 -0.17926797742610
12 0.006721198229738
13 0.0
14 0.0
15 -0.022312069747418
16 0.0
17 0.0
18 -0.001944360871787
 Sym=      1.5
 Ene=       0.0616
 Spin= Alpha
 Occup=    0.000000
1 0.076806476151774
2 -2.57972622721382
3 4.58662221140837
4 0.0
5 0.0
6 0.000871324243516
7 0.0
8 0.0
9 -0.60305019598124
10 -0.076806476151774
11 2.57972622721382
12 -4.58662221140837
13 0.0
14 0.0
15 0.000871324243516
16 0.0
17 0.0
18 -0.60305019598124
 Sym=      2.1
 Ene=       0.0669
 Spin= Alpha
 Occup=    0.000000
1 -0.10631403849234
2 -0.30013019541176
3 0.68995969197279
4 0.0
5 0.0
6 -0.013104385206976
7 0.0
8 0.0
9 0.069919338957197
10 -0.10631403849234
11 -0.30013019541176
12 0.68995969197279
13 0.0
14 0.0
15 0.013104385206976
16 0.0
17 0.0
18 -0.069919338957197
 Sym=      2.5
 Ene=       0.2319
 Spin= Alpha
 Occup=    0.000000
1 -0.26568421854225
2 -11.3478786421982
3 3.34048046187711
4 0.0
5 0.0
6 0.049485283484142
7 0.0
8 0.0
9 -2.34758571487673
10 0.26568421854225
11 11.3478786421982
12 -3.34048046187711
13 0.0
14 0.0
15 0.049485283484142
16 0.0
17 0.0
18 -2.34758571487673
 Sym=      1.2
 Ene=       0.2854
 Spin= Alpha
 Occup=    0.000000
1 0.0
2 0.0
3 0.0
4 -0.011849674707359
5 0.0
6 0.0
7 0.52187210780724
8 0.0
9 0.0
10 0.0
11 0.0
12 0.0
13 -0.011849674707359
14 0.0
15 0.0
16 0.52187210780724
17 0.0
18 0.0
 Sym=      1.3
 Ene=       0.2854
 Spin= Alpha
 Occup=    0.000000
1 0.0
2 0.0
3 0.0
4 0.0
5 -0.011849674707359
6 0.0
7 0.0
8 0.52187210780724
9 0.0
10 0.0
11 0.0
12 0.0
13 0.0
14 -0.011849674707359
15 0.0
16 0.0
17 0.52187210780724
18 0.0
 Sym=      3.1
 Ene=       0.4166
 Spin= Alpha
 Occup=    0.000000
1 0.32502285565749
2 -0.99585182516016
3 0.37754371309357
4 0.0
5 0.0
6 -0.017662105759029
7 0.0
8 0.0
9 1.29782469452067
10 0.32502285565749
11 -0.99585182516016
12 0.37754371309357
13 0.0
14 0.0
15 0.017662105759029
16 0.0
17 0.0
18 -1.29782469452067
 Sym=      1.6
 Ene=       0.4591
 Spin= Alpha
 Occup=    0.000000
1 0.0
2 0.0
3 0.0
4 -0.047271124321371
5 0.0
6 0.0
7 2.01955831728562
8 0.0
9 0.0
10 0.0
11 0.0
12 0.0
13 0.047271124321371
14 0.0
15 0.0
16 -2.01955831728562
17 0.0
18 0.0
 Sym=      1.7
 Ene=       0.4591
 Spin= Alpha
 Occup=    0.000000
1 0.0
2 0.0
3 0.0
4 0.0
5 -0.047271124321371
6 0.0
7 0.0
8 2.01955831728562
9 0.0
10 0.0
11 0.0
12 0.0
13 0.0
14 0.047271124321371
15 0.0
16 0.0
17 -2.01955831728562
18 0.0
 Sym=      3.5
 Ene=       0.5590
 Spin= Alpha
 Occup=    0.000000
1 -0.40485218029790
2 31.7421249477375
3 -2.47066769884465
4 0.0
5 0.0
6 -0.076437621298854
7 0.0
8 0.0
9 8.05889300289977
10 0.40485218029790
11 -31.7421249477375
12 2.47066769884465
13 0.0
14 0.0
15 -0.076437621298854
16 0.0
17 0.0
18 8.05889300289977
 Sym=      4.1
 Ene=       0.7163
 Spin= Alpha
 Occup=    0.000000
1 -1.39369839493702
2 1.36998848766976
3 -0.20637854099329
4 0.0
5 0.0
6 -0.012562957966551
7 0.0
8 0.0
9 0.91744168796600
10 -1.39369839493702
11 1.36998848766976
12 -0.20637854099329
13 0.0
14 0.0
15 0.012562957966551
16 0.0
17 0.0
18 -0.91744168796600
 Sym=      4.5
 Ene=       1.2535
 Spin= Alpha
 Occup=    0.000000
1 1.49154168510257
2 21.0800146136361
3 -0.58217439945164
4 0.0
5 0.0
6 -0.54188834332176
7 0.0
8 0.0
9 6.17844823353284
10 -1.49154168510257
11 -21.0800146136361
12 0.58217439945164
13 0.0
14 0.0
15 -0.54188834332176
16 0.0
17 0.0
18 6.17844823353284
 Sym=      2.2
 Ene=       1.6048
 Spin= Alpha
 Occup=    0.000000
1 0.0
2 0.0
3 0.0
4 0.66788496530604
5 0.0
6 0.0
7 -0.29029910071574
8 0.0
9 0.0
10 0.0
11 0.0
12 0.0
13 0.66788496530604
14 0.0
15 0.0
16 -0.29029910071574
17 0.0
18 0.0
 Sym=      2.3
 Ene=       1.6048
 Spin= Alpha
 Occup=    0.000000
1 0.0
2 0.0
3 0.0
4 0.0
5 0.66788496530604
6 0.0
7 0.0
8 -0.29029910071574
9 0.0
10 0.0
11 0.0
12 0.0
13 0.0
14 0.66788496530604
15 0.0
16 0.0
17 -0.29029910071574
18 0.0
 Sym=      5.1
 Ene=       2.0888
 Spin= Alpha
 Occup=    0.000000
1 -0.68689870665824
2 0.72817635813003
3 -0.13173282948470
4 0.0
5 0.0
6 0.76753517644350
7 0.0
8 0.0
9 -0.43302099993894
10 -0.68689870665824
11 0.72817635813003
12 -0.13173282948470
13 0.0
14 0.0
15 -0.76753517644350
16 0.0
17 0.0
18 0.43302099993894
 Sym=      2.6
 Ene=       2.2479
 Spin= Alpha
 Occup=    0.000000
1 0.0
2 0.0
3 0.0
4 1.07511557560370
5 0.0
6 0.0
7 -0.71803966837375
8 0.0
9 0.0
10 0.0
11 0.0
12 0.0
13 -1.07511557560370
14 0.0
15 0.0
16 0.71803966837375
17 0.0
18 0.0
 Sym=      2.7
 Ene=       2.2479
 Spin= Alpha
 Occup=    0.000000
1 0.0
2 0.0
3 0.0
4 0.0
5 1.07511557560370
6 0.0
7 0.0
8 -0.71803966837375
9 0.0
10 0.0
11 0.0
12 0.0
13 0.0
14 -1.07511557560370
15 0.0
16 0.0
17 0.71803966837375
18 0.0
 Sym=      5.5
 Ene=       3.7450
 Spin= Alpha
 Occup=    0.000000
1 4.60649936922261
2 -9.48887241670054
3 0.43451998346507
4 0.0
5 0.0
6 2.16314084943144
7 0.0
8 0.0
9 -1.91205059434337
10 -4.60649936922261
11 9.48887241670054
12 -0.43451998346507
13 0.0
14 0.0
15 2.16314084943144
16 0.0
17 0.0
18 -1.91205059434337
