[Molden Format]
[Molpro variables]
_NUMVAR=  788.0000000000000    
_AVOGAD= 0.6022136736000000E+24
_BOLTZ= 0.1380658000000000E-22
_CLIGHT=  29979245800.00000    
_EV2006= 0.3674930886769165E-01
_EV= 0.3674932534394180E-01
_ENULL= 0.8854187817000000E-11
_KJOULE= 0.3808798324128737E-03
_KJOULE/MOL= 0.3808798324128737E-03
_CM= 0.4556335267302901E-05
_CM-1= 0.4556335267302901E-05
_DEB2SI= 0.3335641000000000E-29
_AMU2AU=  1822.888390000000    
_KCAL= 0.1593601117815568E-02
_KCAL/MOL= 0.1593601117815568E-02
_KELVIN2006= 0.3166828861084835E-05
_KELVIN= 0.3166814820820034E-05
_JOULE= 0.4359748200000000E-17
_HERTZ2006= 0.1519829850815779E-15
_HERTZ= 0.1519829846011223E-15
_HZ2006= 0.1519829850815779E-15
_HZ= 0.1519829846011223E-15
_JPCAL=  4.184000000000000    
_PLANCK= 0.6626075540000000E-33
_TOA2006= 0.5291772490000000    
_TOA= 0.5291772090000000    
_TOANG2006= 0.5291772490000000    
_TOANG= 0.5291772090000000    
_TORAD= 0.1745329251994330E-01
_TOCM=  219474.6306700000    
_TODEBYE=  2.541580000000000    
_TOEV2006=  27.21139610000000    
_TOE= 0.4803242000000000E-09
_TOEV=  27.21138390000000    
_TOHERTZ2006=  6579683899900000.    
_TOHERTZ=  6579683920700000.    
_TOHZ2006=  6579683899900000.    
_TOHZ=  6579683920700000.    
_TOK2006=  315773.3000000000    
_TOK=  315774.7000000000    
_TOKCAL=  627.5096000000000    
_TOKELVIN2006=  315773.3000000000    
_TOKELVIN=  315774.7000000000    
_TOKJ=  2625.500000000000    
_TOKJOULE=  2625.500000000000    
_TOKG= 0.1660565586000000E-26
_ANG2006=  1.889725988578923    
_ANG=  1.889726131421507    
_ANGSTROM2006=  1.889725988578923    
_ANGSTROM=  1.889726131421507    
_RPAREF=  0.000000000000000    
_RPADISS=  0.000000000000000    
_IGNORE_UNDEF=  2.000000000000000    
_STRICTCHECK=  0.000000000000000    
_SEW_ONEEL=  0.000000000000000    
_CPPDONE=FALSE
_DKROLL_DONE=  0.000000000000000    
_FOCKDONE=TRUE
_GRADONE=FALSE
_HESSDONE=FALSE
_INTDONE=TRUE
_SCFDONE=TRUE
_MODUL_BLOCK=FALSE
_MODUL_CUDA=FALSE
_MODUL_SLATER=FALSE
_MODUL_MRCC=FALSE
_MODUL_NBO6=FALSE
_MODUL_NECI=TRUE
_MODUL_AIMS=TRUE
_MRCC_EXEC=
_FITC_AO_SAVED=FALSE
_FITC_MO_SAVED=FALSE
_SHARED_FS=TRUE
_LSTYP=SEWARD
_INTYP=INTS
_GEOMTYP=ZMAT
_GRADTYP=ALASKA
_DIRECT=FALSE
_DKHO= -1.000000000000000    
_SYNCM=  0.000000000000000    
_BASIS=$BSET
_ZORIENT=  1.000000000000000    
_NELEC=  2.000000000000000    
!SPIN=  0.000000000000000    
_QSDSTEP=  0.000000000000000    
_QSDIRC=  0.000000000000000    
_PROGRAM=HF
_CPUSTEP= 0.1600000000000001    
_SYSSTEP= 0.3000000000000003E-01
_WALLSTEP= 0.1900000000000000    
!DFSCF=  0.000000000000000    
!SCSGRD=  0.000000000000000    
_BASINP=  610.0000000000000    
_CPUTOT=  3.640000000000000    
_CPUSORT= 0.9600000000000000    
_SYSSORT= 0.2400000000000000    
_WALLSORT=  1.189999997615814    
_DFTEXFAC=  1.000000000000000    
_DMX=  0.000000000000000    
_DMY=  0.000000000000000    
_DMZ=  0.000000000000000    
_DMX_SCF=  0.000000000000000    
_DMY_SCF=  0.000000000000000    
_DMZ_SCF=  0.000000000000000    
_EHOMO=-0.5968540336817311    
_ELUMO= 0.3858497459783351E-01
_ENERGY= -1.133647790357627    
_ENUC= 0.7211961436142112    
_GRADEXFAC=  9999.000000000000    
_GRADMETHOD=  1.000000000000000    
_NMRMETHOD=  0.000000000000000    
!GRID_FREEZE= -1.000000000000000    
_ITERATIONS=  6.000000000000000    
_LASTNELEC=  2.000000000000000    
_LASTSPIN=  0.000000000000000    
_LASTSYM=  1.000000000000000    
_MPP_PROG=  0.000000000000000    
_NPROC_MPP=  1.000000000000000    
_NPROC_MPPX=  1.000000000000000    
_NPROC_SMP=  1.000000000000000    
_NUMSTEP=  0.000000000000000    
_ORBITAL=  2100.200000000000    
_PI=  3.141592653589793    
_SEIG_MIN= 0.5258181906321293E-05
_SEWPROP=TRUE
_STATUS=  1.000000000000000    
_SYSTOT= 0.3300000000000000    
_VERSION=  2012001.000000000    
_WALLTOT=  3.970000000000000    
_DATE=28-Aug-15
_LASTORB=RHF
_MACHINE=Linux-3.2.0-89-generic/sce-chem-c01105(x86_64) 64 bit serial version
_OUTPUT=/home/s1267651/phd_mini_24Aug2015/nikolaz/molpro2/AB.xml
_PGROUP=D2h
_TIME=16:40:57
_LIBMOL=/usr/local/molpro/molprop_2012_1_Linux_x86_64_i8/lib/
!VIBCNT=  0.000000000000000    
!RGHFCNT=  0.000000000000000    
!SURFREC=  0.000000000000000    
!POLYREC=  0.000000000000000    
!DIPREC=  0.000000000000000    
!VSCFREC=  0.000000000000000    
!VCIREC=  0.000000000000000    
!PVCIREC=  0.000000000000000    
!VMP2REC=  0.000000000000000    
!VMCSCFREC=  0.000000000000000    
!VMRCIREC=  0.000000000000000    
!VIBINFO=  0.000000000000000    
!GAREC=  0.000000000000000    
!SCFORB=  21002.00000000000    
!NEWMOL= -1.000000000000000    
!NEWSYM= -1.000000000000000    
_SLFILES=slscratch
_NGSSTO=  9.000000000000000    
_SIN=SIN
_COS=COS
_TAN=TAN
_ACOS=ACOS
_ASIN=ASIN
_ATAN=ATAN
_COSH=COSH
_SINH=SINH
_TANH=TANH
_ABS=ABS
_MOD=MOD
_ERF=ERF
_REFC=REFC
_ERFC=ERFC
_HYPOT=HYPOT
_J0=J0
_J1=J1
_JN=JN
_GAMMA=GAMMA
_LGAMMA=LGAMMA
_Y0=Y0
_Y1=Y1
_YN=YN
_EXP=EXP
_LOG=LOG
_LOG10=LOG10
_SQRT=SQRT
_INT=INT
_NINT=NINT
_MAX=MAX
_MIN=MIN
_COSMO=  0.000000000000000    
_COSMOIT=  0.000000000000000    
_COSMOES=  0.000000000000000    
_COSMOEDS=  0.000000000000000    
_COSMOEC=  0.000000000000000    
_COSMOEDCORR=  0.000000000000000    
_FEPSI=  1.000000000000000    
_SL_IsMM=  0.000000000000000    
_SL_NSYM=  8.000000000000000    
_SL_System_BitSw=  0.000000000000000    
_SL_Unique_atoms=  0.000000000000000    
_SL_GRAD=  0.000000000000000    
_SL_MAXUPD_Hess=  5.000000000000000    
_SL_N_PRINT_COD=  5.000000000000000    
_SL_PRINT_CODES=  0.000000000000000    
_SL_BasType=  0.000000000000000    
_SL_Energy_Pred=  0.000000000000000    
_SL_New_Coords=  0.000000000000000    
_SL_Total_Nuclea=  0.000000000000000    
_SL_Highest_Mltp=  0.000000000000000    
_SL_Ref_Geom=  0.000000000000000    
_SL_Symmetry_ope=  1.000000000000000    
_SL_agrad=  0.000000000000000    
_SL_GrdMax=  0.000000000000000    
_SL_GrdNorm=  0.000000000000000    
_SL_GrdRMS=  0.000000000000000    
_SL_Hss_Q=  0.000000000000000    
_SL_Hss_X=  0.000000000000000    
_SL_BMxOld=  0.000000000000000    
_SL_KtB=  0.000000000000000    
!LATTICE= -1.000000000000000    
!NEWLATTICE=  0.000000000000000    
!LATGRAD_VAR=FALSE
!SEW_LATTICE=  1.000000000000000    
!LOCAL=  0.000000000000000    
!SAVEDOM= -1.000000000000000    
!RESTDOM= -1.000000000000000    
!SAVEDOM_HF= -1.000000000000000    
!RESTDOM_HF= -1.000000000000000    
!HESSREC=  0.000000000000000    
!FREQREC=  0.000000000000000    
!NMODREC=  0.000000000000000    
!GTASKS=  0.000000000000000    
!HTASKS=  0.000000000000000    
!THRCHG= 0.1000000000000000    
!DEBUG= -1.000000000000000    
!CFIT_CPHF=  0.000000000000000    
!RDOMAUX_CPHF=  3.000000000000000    
!THRAO_CPHF= 0.1000000000000000E-09
!THRMO_CPHF= 0.1000000000000000E-08
!THROV_CPHF= 0.1000000000000000E-11
!THRSW_CPHF= 0.1000000000000000E-09
!THRPROD_CPHF= 0.1000000000000000E-08
!THRAOPR_CPHF= 0.1000000000000000E-11
!CFIT_SCFGRD=  0.000000000000000    
!RDOMAUX_SCFGRD=  5.000000000000000    
!THRAO_SCFGRD= 0.1000000000000000E-09
!THRMO_SCFGRD= 0.1000000000000000E-08
!THROV_SCFGRD= 0.1000000000000000E-11
!THRSW_SCFGRD= 0.1000000000000000E-09
!THRPROD_SCFGRD= 0.1000000000000000E-08
!THRAOPR_SCFGRD= 0.1000000000000000E-11
!LOCFIT_SCF=  0.000000000000000    
!LOCFIT_MP2= -1.000000000000000    
_RIDOM=  0.000000000000000    
!CC2_METHOD=  0.000000000000000    
_BASIS2006=FALSE
_SVDDEL= -1.000000000000000    
_SVDDELA= -1.000000000000000    
_SVDDELP= -1.000000000000000    
_SVDDELF= -1.000000000000000    
_SVDDELS= -1.000000000000000    
_SVDDEL_ABS= -1.000000000000000    
_SVDDELA_ABS= -1.000000000000000    
_SVDDELP_ABS= -1.000000000000000    
_SVDDELF_ABS= -1.000000000000000    
_SVDDELS_ABS= -1.000000000000000    
_MAXBASIS=  0.000000000000000    
!OPT_CONICAL=  0.000000000000000    
!CLEARSP_JGRID=  0.000000000000000    
_4EXT_NDISKS=  1.000000000000000    
!ZMP=  0.000000000000000    
_MAXIT_ZMP=  500.0000000000000    
_MAXDIS_ZMP=  100.0000000000000    
_ACCU_ZMP=  14.00000000000000    
_SHIFTA_ZMP= -100.0000000000000    
!EMBEDFLAG=  1.000000000000000    
!EMBED=FALSE
!EMBED_F12=FALSE
!EMBEDNUC=  0.000000000000000    
_EMBEDENERGY=  0.000000000000000    
_KSPACETIME=  0.000000000000000    
_RSPACETIME=  0.000000000000000    
!EMBED_DFC=FALSE
!NUM_VOIDS=  0.000000000000000    
_IBODY=  0.000000000000000    
_EMBE_TOTAL=  0.000000000000000    
_EMBE_HF=  0.000000000000000    
_EMBE_CORR=  0.000000000000000    
!EDFT=  0.000000000000000    
_IFASTLATGRAD=  0.000000000000000    
_SINDEX=  0.000000000000000    
A=H
B=H
BSET=AUG-CC-PV5Z
R=  1.386585340000000    
METH=HF
GX1=  0.000000000000000    
GY1=  0.000000000000000    
GZ1=-0.6932926700000001    
GX2=  0.000000000000000    
GY2=  0.000000000000000    
GZ2= 0.6932926700000001    
STR=../input/HH_AUG-CC-PV5Z_HF.mld
[Atoms] Angs
H     1    1         0.0000000000        0.0000000000       -0.3668746801
H     2    1         0.0000000000        0.0000000000        0.3668746801
[GTO]
  1 0
 s    8  1.00
  0.4020000000D+03  0.2789999577D-03
  0.6024000000D+02  0.2164999671D-02
  0.1373000000D+02  0.1120099830D-01
  0.3905000000D+01  0.4487799319D-01
  0.1283000000D+01  0.1422989784D+00
  0.4655000000D+00  0.3309789498D+00
  0.1811000000D+00  0.4362689338D+00
  0.7279000000D-01  0.1764399732D+00
 s    8  1.00
  0.4020000000D+03  0.0000000000D+00
  0.6024000000D+02  0.0000000000D+00
  0.1373000000D+02  0.0000000000D+00
  0.3905000000D+01  0.0000000000D+00
  0.1283000000D+01  0.1000000000D+01
  0.4655000000D+00  0.0000000000D+00
  0.1811000000D+00  0.0000000000D+00
  0.7279000000D-01  0.0000000000D+00
 s    8  1.00
  0.4020000000D+03  0.0000000000D+00
  0.6024000000D+02  0.0000000000D+00
  0.1373000000D+02  0.0000000000D+00
  0.3905000000D+01  0.0000000000D+00
  0.1283000000D+01  0.0000000000D+00
  0.4655000000D+00  0.1000000000D+01
  0.1811000000D+00  0.0000000000D+00
  0.7279000000D-01  0.0000000000D+00
 s    8  1.00
  0.4020000000D+03  0.0000000000D+00
  0.6024000000D+02  0.0000000000D+00
  0.1373000000D+02  0.0000000000D+00
  0.3905000000D+01  0.0000000000D+00
  0.1283000000D+01  0.0000000000D+00
  0.4655000000D+00  0.0000000000D+00
  0.1811000000D+00  0.1000000000D+01
  0.7279000000D-01  0.0000000000D+00
 s    8  1.00
  0.4020000000D+03  0.0000000000D+00
  0.6024000000D+02  0.0000000000D+00
  0.1373000000D+02  0.0000000000D+00
  0.3905000000D+01  0.0000000000D+00
  0.1283000000D+01  0.0000000000D+00
  0.4655000000D+00  0.0000000000D+00
  0.1811000000D+00  0.0000000000D+00
  0.7279000000D-01  0.1000000000D+01
 s    1  1.00
  0.2070000000D-01  0.1000000000D+01
 p    1  1.00
  0.4516000000D+01  0.1000000000D+01
 p    1  1.00
  0.1712000000D+01  0.1000000000D+01
 p    1  1.00
  0.6490000000D+00  0.1000000000D+01
 p    1  1.00
  0.2460000000D+00  0.1000000000D+01
 p    1  1.00
  0.7440000000D-01  0.1000000000D+01
 d    1  1.00
  0.2950000000D+01  0.1000000000D+01
 d    1  1.00
  0.1206000000D+01  0.1000000000D+01
 d    1  1.00
  0.4930000000D+00  0.1000000000D+01
 d    1  1.00
  0.1560000000D+00  0.1000000000D+01
 f    1  1.00
  0.2506000000D+01  0.1000000000D+01
 f    1  1.00
  0.8750000000D+00  0.1000000000D+01
 f    1  1.00
  0.2740000000D+00  0.1000000000D+01
 g    1  1.00
  0.2358000000D+01  0.1000000000D+01
 g    1  1.00
  0.5430000000D+00  0.1000000000D+01
  
  2 0
 s    8  1.00
  0.4020000000D+03  0.2789999577D-03
  0.6024000000D+02  0.2164999671D-02
  0.1373000000D+02  0.1120099830D-01
  0.3905000000D+01  0.4487799319D-01
  0.1283000000D+01  0.1422989784D+00
  0.4655000000D+00  0.3309789498D+00
  0.1811000000D+00  0.4362689338D+00
  0.7279000000D-01  0.1764399732D+00
 s    8  1.00
  0.4020000000D+03  0.0000000000D+00
  0.6024000000D+02  0.0000000000D+00
  0.1373000000D+02  0.0000000000D+00
  0.3905000000D+01  0.0000000000D+00
  0.1283000000D+01  0.1000000000D+01
  0.4655000000D+00  0.0000000000D+00
  0.1811000000D+00  0.0000000000D+00
  0.7279000000D-01  0.0000000000D+00
 s    8  1.00
  0.4020000000D+03  0.0000000000D+00
  0.6024000000D+02  0.0000000000D+00
  0.1373000000D+02  0.0000000000D+00
  0.3905000000D+01  0.0000000000D+00
  0.1283000000D+01  0.0000000000D+00
  0.4655000000D+00  0.1000000000D+01
  0.1811000000D+00  0.0000000000D+00
  0.7279000000D-01  0.0000000000D+00
 s    8  1.00
  0.4020000000D+03  0.0000000000D+00
  0.6024000000D+02  0.0000000000D+00
  0.1373000000D+02  0.0000000000D+00
  0.3905000000D+01  0.0000000000D+00
  0.1283000000D+01  0.0000000000D+00
  0.4655000000D+00  0.0000000000D+00
  0.1811000000D+00  0.1000000000D+01
  0.7279000000D-01  0.0000000000D+00
 s    8  1.00
  0.4020000000D+03  0.0000000000D+00
  0.6024000000D+02  0.0000000000D+00
  0.1373000000D+02  0.0000000000D+00
  0.3905000000D+01  0.0000000000D+00
  0.1283000000D+01  0.0000000000D+00
  0.4655000000D+00  0.0000000000D+00
  0.1811000000D+00  0.0000000000D+00
  0.7279000000D-01  0.1000000000D+01
 s    1  1.00
  0.2070000000D-01  0.1000000000D+01
 p    1  1.00
  0.4516000000D+01  0.1000000000D+01
 p    1  1.00
  0.1712000000D+01  0.1000000000D+01
 p    1  1.00
  0.6490000000D+00  0.1000000000D+01
 p    1  1.00
  0.2460000000D+00  0.1000000000D+01
 p    1  1.00
  0.7440000000D-01  0.1000000000D+01
 d    1  1.00
  0.2950000000D+01  0.1000000000D+01
 d    1  1.00
  0.1206000000D+01  0.1000000000D+01
 d    1  1.00
  0.4930000000D+00  0.1000000000D+01
 d    1  1.00
  0.1560000000D+00  0.1000000000D+01
 f    1  1.00
  0.2506000000D+01  0.1000000000D+01
 f    1  1.00
  0.8750000000D+00  0.1000000000D+01
 f    1  1.00
  0.2740000000D+00  0.1000000000D+01
 g    1  1.00
  0.2358000000D+01  0.1000000000D+01
 g    1  1.00
  0.5430000000D+00  0.1000000000D+01
 
 
[MO]
 Sym=      1.1
 Ene=      -0.5969
 Spin= Alpha
 Occup=    2.000000
1 0.82819395912348
2 -0.012164250009196
3 -0.067747464322268
4 -0.15978226542294
5 -0.097032686582563
6 -0.000191246303982
7 0.0
8 0.0
9 0.001478815797275
10 0.0
11 0.0
12 0.005083112283688
13 0.0
14 0.0
15 0.016714132057793
16 0.0
17 0.0
18 0.017587051792386
19 0.0
20 0.0
21 0.004460903367651
22 -0.000254982693933
23 -0.000254982693933
24 0.000509965387865
25 0.0
26 0.0
27 0.0
28 -0.001046231257226
29 -0.001046231257226
30 0.002092462514453
31 0.0
32 0.0
33 0.0
34 -0.001918745073319
35 -0.001918745073319
36 0.003837490146638
37 0.0
38 0.0
39 0.0
40 -0.000375608868757
41 -0.000375608868757
42 0.000751217737514
43 0.0
44 0.0
45 0.0
46 0.0
47 0.0
48 0.000230258791516
49 0.0
50 0.0
51 -0.000154462293074
52 0.0
53 0.0
54 -0.000154462293074
55 0.0
56 0.0
57 0.0
58 0.000943141709541
59 0.0
60 0.0
61 -0.000632678692485
62 0.0
63 0.0
64 -0.000632678692485
65 0.0
66 0.0
67 0.0
68 0.000386539983942
69 0.0
70 0.0
71 -0.000259298904035
72 0.0
73 0.0
74 -0.000259298904035
75 0.0
76 0.000029813072152
77 0.000029813072152
78 0.000079501525740
79 0.0
80 0.0
81 0.0
82 0.0
83 0.0
84 0.0
85 0.000017456747573
86 -0.000069826990292
87 -0.000069826990292
88 0.0
89 0.0
90 0.0
91 0.000074004761603
92 0.000074004761603
93 0.000197346030941
94 0.0
95 0.0
96 0.0
97 0.0
98 0.0
99 0.0
100 0.000043332751348
101 -0.000173331005392
102 -0.000173331005392
103 0.0
104 0.0
105 0.0
106 0.82819395912348
107 -0.012164250009196
108 -0.067747464322268
109 -0.15978226542294
110 -0.097032686582563
111 -0.000191246303982
112 0.0
113 0.0
114 -0.001478815797275
115 0.0
116 0.0
117 -0.005083112283688
118 0.0
119 0.0
120 -0.016714132057793
121 0.0
122 0.0
123 -0.017587051792386
124 0.0
125 0.0
126 -0.004460903367651
127 -0.000254982693933
128 -0.000254982693933
129 0.000509965387865
130 0.0
131 0.0
132 0.0
133 -0.001046231257226
134 -0.001046231257226
135 0.002092462514453
136 0.0
137 0.0
138 0.0
139 -0.001918745073319
140 -0.001918745073319
141 0.003837490146638
142 0.0
143 0.0
144 0.0
145 -0.000375608868757
146 -0.000375608868757
147 0.000751217737514
148 0.0
149 0.0
150 0.0
151 0.0
152 0.0
153 -0.000230258791516
154 0.0
155 0.0
156 0.000154462293074
157 0.0
158 0.0
159 0.000154462293074
160 0.0
161 0.0
162 0.0
163 -0.000943141709541
164 0.0
165 0.0
166 0.000632678692485
167 0.0
168 0.0
169 0.000632678692485
170 0.0
171 0.0
172 0.0
173 -0.000386539983942
174 0.0
175 0.0
176 0.000259298904035
177 0.0
178 0.0
179 0.000259298904035
180 0.0
181 0.000029813072152
182 0.000029813072152
183 0.000079501525740
184 0.0
185 0.0
186 0.0
187 0.0
188 0.0
189 0.0
190 0.000017456747573
191 -0.000069826990292
192 -0.000069826990292
193 0.0
194 0.0
195 0.0
196 0.000074004761603
197 0.000074004761603
198 0.000197346030941
199 0.0
200 0.0
201 0.0
202 0.0
203 0.0
204 0.0
205 0.000043332751348
206 -0.000173331005392
207 -0.000173331005392
208 0.0
209 0.0
210 0.0
 Sym=      2.1
 Ene=       0.0386
 Spin= Alpha
 Occup=    0.000000
1 -0.11449731601596
2 -0.021044349169417
3 -0.11972800276565
4 0.22074774930365
5 -0.47180197343470
6 0.76246318297974
7 0.0
8 0.0
9 0.001215465359039
10 0.0
11 0.0
12 -0.016143758447945
13 0.0
14 0.0
15 0.035214411999684
16 0.0
17 0.0
18 0.068020149084547
19 0.0
20 0.0
21 0.13457895110130
22 0.000486785455946
23 0.000486785455946
24 -0.000973570911893
25 0.0
26 0.0
27 0.0
28 -0.002323547504525
29 -0.002323547504525
30 0.004647095009050
31 0.0
32 0.0
33 0.0
34 -0.021321533772133
35 -0.021321533772133
36 0.042643067544267
37 0.0
38 0.0
39 0.0
40 -0.017378776015499
41 -0.017378776015499
42 0.034757552030997
43 0.0
44 0.0
45 0.0
46 0.0
47 0.0
48 0.000364850597388
49 0.0
50 0.0
51 -0.000244749221218
52 0.0
53 0.0
54 -0.000244749221218
55 0.0
56 0.0
57 0.0
58 0.009779894937487
59 0.0
60 0.0
61 -0.006560552967908
62 0.0
63 0.0
64 -0.006560552967908
65 0.0
66 0.0
67 0.0
68 0.010695732082395
69 0.0
70 0.0
71 -0.007174915201608
72 0.0
73 0.0
74 -0.007174915201608
75 0.0
76 0.000282718660047
77 0.000282718660047
78 0.000753916426793
79 0.0
80 0.0
81 0.0
82 0.0
83 0.0
84 0.0
85 0.000165543096578
86 -0.000662172386314
87 -0.000662172386314
88 0.0
89 0.0
90 0.0
91 0.000790545176013
92 0.000790545176013
93 0.002108120469367
94 0.0
95 0.0
96 0.0
97 0.0
98 0.0
99 0.0
100 0.000462895856964
101 -0.001851583427855
102 -0.001851583427855
103 0.0
104 0.0
105 0.0
106 -0.11449731601596
107 -0.021044349169417
108 -0.11972800276565
109 0.22074774930365
110 -0.47180197343470
111 0.76246318297974
112 0.0
113 0.0
114 -0.001215465359039
115 0.0
116 0.0
117 0.016143758447945
118 0.0
119 0.0
120 -0.035214411999684
121 0.0
122 0.0
123 -0.068020149084547
124 0.0
125 0.0
126 -0.13457895110130
127 0.000486785455946
128 0.000486785455946
129 -0.000973570911893
130 0.0
131 0.0
132 0.0
133 -0.002323547504525
134 -0.002323547504525
135 0.004647095009050
136 0.0
137 0.0
138 0.0
139 -0.021321533772133
140 -0.021321533772133
141 0.042643067544267
142 0.0
143 0.0
144 0.0
145 -0.017378776015499
146 -0.017378776015499
147 0.034757552030997
148 0.0
149 0.0
150 0.0
151 0.0
152 0.0
153 -0.000364850597388
154 0.0
155 0.0
156 0.000244749221218
157 0.0
158 0.0
159 0.000244749221218
160 0.0
161 0.0
162 0.0
163 -0.009779894937487
164 0.0
165 0.0
166 0.006560552967908
167 0.0
168 0.0
169 0.006560552967908
170 0.0
171 0.0
172 0.0
173 -0.010695732082395
174 0.0
175 0.0
176 0.007174915201608
177 0.0
178 0.0
179 0.007174915201608
180 0.0
181 0.000282718660047
182 0.000282718660047
183 0.000753916426793
184 0.0
185 0.0
186 0.0
187 0.0
188 0.0
189 0.0
190 0.000165543096578
191 -0.000662172386314
192 -0.000662172386314
193 0.0
194 0.0
195 0.0
196 0.000790545176013
197 0.000790545176013
198 0.002108120469367
199 0.0
200 0.0
201 0.0
202 0.0
203 0.0
204 0.0
205 0.000462895856964
206 -0.001851583427855
207 -0.001851583427855
208 0.0
209 0.0
210 0.0
 Sym=      1.5
 Ene=       0.0429
 Spin= Alpha
 Occup=    0.000000
1 0.021997135094160
2 -0.001220632568409
3 1.14922086151879
4 2.88016232027876
5 4.48009072712562
6 5.98193519377002
7 0.0
8 0.0
9 -0.000918174061655
10 0.0
11 0.0
12 0.006735956667720
13 0.0
14 0.0
15 0.39318430607434
16 0.0
17 0.0
18 0.92792639449496
19 0.0
20 0.0
21 1.16047463654619
22 0.000634831728172
23 0.000634831728172
24 -0.001269663456344
25 0.0
26 0.0
27 0.0
28 -0.017549331082042
29 -0.017549331082042
30 0.035098662164084
31 0.0
32 0.0
33 0.0
34 -0.069021924304494
35 -0.069021924304494
36 0.13804384860899
37 0.0
38 0.0
39 0.0
40 -0.073384605048011
41 -0.073384605048011
42 0.14676921009602
43 0.0
44 0.0
45 0.0
46 0.0
47 0.0
48 0.001489576529430
49 0.0
50 0.0
51 -0.000999238313248
52 0.0
53 0.0
54 -0.000999238313248
55 0.0
56 0.0
57 0.0
58 0.012284901697931
59 0.0
60 0.0
61 -0.008240962588043
62 0.0
63 0.0
64 -0.008240962588043
65 0.0
66 0.0
67 0.0
68 0.008409956359771
69 0.0
70 0.0
71 -0.005641570232476
72 0.0
73 0.0
74 -0.005641570232476
75 0.0
76 0.000204477813113
77 0.000204477813113
78 0.000545274168303
79 0.0
80 0.0
81 0.0
82 0.0
83 0.0
84 0.0
85 0.000119729947640
86 -0.000478919790561
87 -0.000478919790561
88 0.0
89 0.0
90 0.0
91 -0.000822056638668
92 -0.000822056638668
93 -0.002192151036447
94 0.0
95 0.0
96 0.0
97 0.0
98 0.0
99 0.0
100 -0.000481347080186
101 0.001925388320745
102 0.001925388320745
103 0.0
104 0.0
105 0.0
106 -0.021997135094160
107 0.001220632568409
108 -1.14922086151879
109 -2.88016232027876
110 -4.48009072712562
111 -5.98193519377002
112 0.0
113 0.0
114 -0.000918174061655
115 0.0
116 0.0
117 0.006735956667720
118 0.0
119 0.0
120 0.39318430607434
121 0.0
122 0.0
123 0.92792639449496
124 0.0
125 0.0
126 1.16047463654619
127 -0.000634831728172
128 -0.000634831728172
129 0.001269663456344
130 0.0
131 0.0
132 0.0
133 0.017549331082042
134 0.017549331082042
135 -0.035098662164084
136 0.0
137 0.0
138 0.0
139 0.069021924304494
140 0.069021924304494
141 -0.13804384860899
142 0.0
143 0.0
144 0.0
145 0.073384605048011
146 0.073384605048011
147 -0.14676921009602
148 0.0
149 0.0
150 0.0
151 0.0
152 0.0
153 0.001489576529430
154 0.0
155 0.0
156 -0.000999238313248
157 0.0
158 0.0
159 -0.000999238313248
160 0.0
161 0.0
162 0.0
163 0.012284901697931
164 0.0
165 0.0
166 -0.008240962588043
167 0.0
168 0.0
169 -0.008240962588043
170 0.0
171 0.0
172 0.0
173 0.008409956359771
174 0.0
175 0.0
176 -0.005641570232476
177 0.0
178 0.0
179 -0.005641570232476
180 0.0
181 -0.000204477813113
182 -0.000204477813113
183 -0.000545274168303
184 0.0
185 0.0
186 0.0
187 0.0
188 0.0
189 0.0
190 -0.000119729947640
191 0.000478919790561
192 0.000478919790561
193 0.0
194 0.0
195 0.0
196 0.000822056638668
197 0.000822056638668
198 0.002192151036447
199 0.0
200 0.0
201 0.0
202 0.0
203 0.0
204 0.0
205 0.000481347080186
206 -0.001925388320745
207 -0.001925388320745
208 0.0
209 0.0
210 0.0
 Sym=      2.5
 Ene=       0.1526
 Spin= Alpha
 Occup=    0.000000
1 -0.26301642381029
2 0.000623424355716
3 3.53722438913753
4 9.17326083840680
5 21.3627904950324
6 4.65192435170960
7 0.0
8 0.0
9 -0.001409635978865
10 0.0
11 0.0
12 0.024794987164701
13 0.0
14 0.0
15 1.21181335381522
16 0.0
17 0.0
18 2.95231860602483
19 0.0
20 0.0
21 5.36405983458677
22 0.001823021348295
23 0.001823021348295
24 -0.003646042696590
25 0.0
26 0.0
27 0.0
28 -0.052764304746679
29 -0.052764304746679
30 0.10552860949336
31 0.0
32 0.0
33 0.0
34 -0.21420110808716
35 -0.21420110808717
36 0.42840221617433
37 0.0
38 0.0
39 0.0
40 -0.25498330717655
41 -0.25498330717656
42 0.50996661435311
43 0.0
44 0.0
45 0.0
46 0.0
47 0.0
48 0.004408023588565
49 0.0
50 0.0
51 -0.002956992117136
52 0.0
53 0.0
54 -0.002956992117136
55 0.0
56 0.0
57 0.0
58 0.038687214476880
59 0.0
60 0.0
61 -0.025952172429125
62 0.0
63 0.0
64 -0.025952172429126
65 0.0
66 0.0
67 0.0
68 0.038400610358737
69 0.0
70 0.0
71 -0.025759912541884
72 0.0
73 0.0
74 -0.025759912541887
75 0.0
76 0.000650994489386
77 0.000650994489386
78 0.001735985305029
79 0.0
80 0.0
81 0.0
82 0.0
83 0.0
84 0.0
85 0.000381183341808
86 -0.001524733367234
87 -0.001524733367234
88 0.0
89 0.0
90 0.0
91 -0.001843294174716
92 -0.001843294174715
93 -0.004915451132575
94 0.0
95 0.0
96 0.0
97 0.0
98 0.0
99 0.0
100 -0.001079322551742
101 0.004317290206970
102 0.004317290206969
103 0.0
104 0.0
105 0.0
106 0.26301642381029
107 -0.000623424355716
108 -3.53722438913753
109 -9.17326083840680
110 -21.3627904950324
111 -4.65192435170960
112 0.0
113 0.0
114 -0.001409635978865
115 0.0
116 0.0
117 0.024794987164701
118 0.0
119 0.0
120 1.21181335381522
121 0.0
122 0.0
123 2.95231860602483
124 0.0
125 0.0
126 5.36405983458677
127 -0.001823021348295
128 -0.001823021348295
129 0.003646042696590
130 0.0
131 0.0
132 0.0
133 0.052764304746679
134 0.052764304746679
135 -0.10552860949336
136 0.0
137 0.0
138 0.0
139 0.21420110808716
140 0.21420110808717
141 -0.42840221617433
142 0.0
143 0.0
144 0.0
145 0.25498330717655
146 0.25498330717656
147 -0.50996661435311
148 0.0
149 0.0
150 0.0
151 0.0
152 0.0
153 0.004408023588565
154 0.0
155 0.0
156 -0.002956992117136
157 0.0
158 0.0
159 -0.002956992117136
160 0.0
161 0.0
162 0.0
163 0.038687214476880
164 0.0
165 0.0
166 -0.025952172429125
167 0.0
168 0.0
169 -0.025952172429126
170 0.0
171 0.0
172 0.0
173 0.038400610358737
174 0.0
175 0.0
176 -0.025759912541884
177 0.0
178 0.0
179 -0.025759912541887
180 0.0
181 -0.000650994489386
182 -0.000650994489386
183 -0.001735985305029
184 0.0
185 0.0
186 0.0
187 0.0
188 0.0
189 0.0
190 -0.000381183341808
191 0.001524733367234
192 0.001524733367234
193 0.0
194 0.0
195 0.0
196 0.001843294174716
197 0.001843294174715
198 0.004915451132575
199 0.0
200 0.0
201 0.0
202 0.0
203 0.0
204 0.0
205 0.001079322551742
206 -0.004317290206970
207 -0.004317290206969
208 0.0
209 0.0
210 0.0
 Sym=      1.3
 Ene=       0.1528
 Spin= Alpha
 Occup=    0.000000
1 0.0
2 0.0
3 0.0
4 0.0
5 0.0
6 0.0
7 0.0
8 0.003591238445344
9 0.0
10 0.0
11 -0.009266572322916
12 0.0
13 0.0
14 0.076657976477551
15 0.0
16 0.0
17 -0.16700326377676
18 0.0
19 0.0
20 0.58456900288644
21 0.0
22 0.0
23 0.0
24 0.0
25 0.0
26 0.0
27 0.002371883104519
28 0.0
29 0.0
30 0.0
31 0.0
32 0.0
33 -0.004023528681649
34 0.0
35 0.0
36 0.0
37 0.0
38 0.0
39 -0.001089181603628
40 0.0
41 0.0
42 0.0
43 0.0
44 0.0
45 0.047044299947010
46 0.0
47 -0.001477220797469
48 0.0
49 0.0
50 -0.000660633224183
51 0.0
52 0.0
53 0.002642532896734
54 0.0
55 0.0
56 0.0
57 0.009713719313382
58 0.0
59 0.0
60 0.004344107339815
61 0.0
62 0.0
63 -0.017376429359260
64 0.0
65 0.0
66 0.0
67 -0.015945740721736
68 0.0
69 0.0
70 -0.007131152041078
71 0.0
72 0.0
73 0.028524608164311
74 0.0
75 0.0
76 0.0
77 0.0
78 0.0
79 0.0
80 0.0
81 0.0
82 0.000675140713764
83 0.0
84 -0.000900187618352
85 0.0
86 0.0
87 0.0
88 0.000301932106071
89 0.0
90 0.0
91 0.0
92 0.0
93 0.0
94 0.0
95 0.0
96 0.0
97 0.005929995187477
98 0.0
99 -0.007906660249969
100 0.0
101 0.0
102 0.0
103 0.002651974469089
104 0.0
105 0.0
106 0.0
107 0.0
108 0.0
109 0.0
110 0.0
111 0.0
112 0.0
113 0.003591238445344
114 0.0
115 0.0
116 -0.009266572322916
117 0.0
118 0.0
119 0.076657976477551
120 0.0
121 0.0
122 -0.16700326377676
123 0.0
124 0.0
125 0.58456900288644
126 0.0
127 0.0
128 0.0
129 0.0
130 0.0
131 0.0
132 -0.002371883104519
133 0.0
134 0.0
135 0.0
136 0.0
137 0.0
138 0.004023528681649
139 0.0
140 0.0
141 0.0
142 0.0
143 0.0
144 0.001089181603628
145 0.0
146 0.0
147 0.0
148 0.0
149 0.0
150 -0.047044299947010
151 0.0
152 -0.001477220797469
153 0.0
154 0.0
155 -0.000660633224183
156 0.0
157 0.0
158 0.002642532896734
159 0.0
160 0.0
161 0.0
162 0.009713719313382
163 0.0
164 0.0
165 0.004344107339815
166 0.0
167 0.0
168 -0.017376429359260
169 0.0
170 0.0
171 0.0
172 -0.015945740721736
173 0.0
174 0.0
175 -0.007131152041078
176 0.0
177 0.0
178 0.028524608164311
179 0.0
180 0.0
181 0.0
182 0.0
183 0.0
184 0.0
185 0.0
186 0.0
187 -0.000675140713764
188 0.0
189 0.000900187618352
190 0.0
191 0.0
192 0.0
193 -0.000301932106071
194 0.0
195 0.0
196 0.0
197 0.0
198 0.0
199 0.0
200 0.0
201 0.0
202 -0.005929995187477
203 0.0
204 0.007906660249969
205 0.0
206 0.0
207 0.0
208 -0.002651974469089
209 0.0
210 0.0
 Sym=      1.2
 Ene=       0.1528
 Spin= Alpha
 Occup=    0.000000
1 0.0
2 0.0
3 0.0
4 0.0
5 0.0
6 0.0
7 0.003591238445344
8 0.0
9 0.0
10 -0.009266572322916
11 0.0
12 0.0
13 0.076657976477551
14 0.0
15 0.0
16 -0.16700326377676
17 0.0
18 0.0
19 0.58456900288644
20 0.0
21 0.0
22 0.0
23 0.0
24 0.0
25 0.0
26 0.002371883104519
27 0.0
28 0.0
29 0.0
30 0.0
31 0.0
32 -0.004023528681649
33 0.0
34 0.0
35 0.0
36 0.0
37 0.0
38 -0.001089181603627
39 0.0
40 0.0
41 0.0
42 0.0
43 0.0
44 0.047044299947012
45 0.0
46 -0.001477220797469
47 0.0
48 0.0
49 -0.000660633224183
50 0.0
51 0.0
52 0.002642532896734
53 0.0
54 0.0
55 0.0
56 0.009713719313382
57 0.0
58 0.0
59 0.004344107339815
60 0.0
61 0.0
62 -0.017376429359260
63 0.0
64 0.0
65 0.0
66 -0.015945740721737
67 0.0
68 0.0
69 -0.007131152041078
70 0.0
71 0.0
72 0.028524608164312
73 0.0
74 0.0
75 0.0
76 0.0
77 0.0
78 0.0
79 0.0
80 0.000675140713764
81 0.0
82 0.0
83 -0.000900187618352
84 0.0
85 0.0
86 0.0
87 0.0
88 0.0
89 0.000301932106071
90 0.0
91 0.0
92 0.0
93 0.0
94 0.0
95 0.005929995187476
96 0.0
97 0.0
98 -0.007906660249969
99 0.0
100 0.0
101 0.0
102 0.0
103 0.0
104 0.002651974469089
105 0.0
106 0.0
107 0.0
108 0.0
109 0.0
110 0.0
111 0.0
112 0.003591238445344
113 0.0
114 0.0
115 -0.009266572322916
116 0.0
117 0.0
118 0.076657976477551
119 0.0
120 0.0
121 -0.16700326377676
122 0.0
123 0.0
124 0.58456900288644
125 0.0
126 0.0
127 0.0
128 0.0
129 0.0
130 0.0
131 -0.002371883104519
132 0.0
133 0.0
134 0.0
135 0.0
136 0.0
137 0.004023528681649
138 0.0
139 0.0
140 0.0
141 0.0
142 0.0
143 0.001089181603627
144 0.0
145 0.0
146 0.0
147 0.0
148 0.0
149 -0.047044299947012
150 0.0
151 -0.001477220797469
152 0.0
153 0.0
154 -0.000660633224183
155 0.0
156 0.0
157 0.002642532896734
158 0.0
159 0.0
160 0.0
161 0.009713719313382
162 0.0
163 0.0
164 0.004344107339815
165 0.0
166 0.0
167 -0.017376429359260
168 0.0
169 0.0
170 0.0
171 -0.015945740721737
172 0.0
173 0.0
174 -0.007131152041078
175 0.0
176 0.0
177 0.028524608164312
178 0.0
179 0.0
180 0.0
181 0.0
182 0.0
183 0.0
184 0.0
185 -0.000675140713764
186 0.0
187 0.0
188 0.000900187618352
189 0.0
190 0.0
191 0.0
192 0.0
193 0.0
194 -0.000301932106071
195 0.0
196 0.0
197 0.0
198 0.0
199 0.0
200 -0.005929995187476
201 0.0
202 0.0
203 0.007906660249969
204 0.0
205 0.0
206 0.0
207 0.0
208 0.0
209 -0.002651974469089
210 0.0
 Sym=      3.1
 Ene=       0.1908
 Spin= Alpha
 Occup=    0.000000
1 0.22585854400706
2 -0.24191360679356
3 -1.11763377873480
4 -0.33276332617252
5 -0.61203192745277