[Molden Format]
[Molpro variables]
_NUMVAR=  788.0000000000000    
_AVOGAD= 0.6022136736000000E+24
_BOLTZ= 0.1380658000000000E-22
_CLIGHT=  29979245800.00000    
_EV2006= 0.3674930886769165E-01
_EV= 0.3674932534394180E-01
_ENULL= 0.8854187817000000E-11
_KJOULE= 0.3808798324128737E-03
_KJOULE/MOL= 0.3808798324128737E-03
_CM= 0.4556335267302901E-05
_CM-1= 0.4556335267302901E-05
_DEB2SI= 0.3335641000000000E-29
_AMU2AU=  1822.888390000000    
_KCAL= 0.1593601117815568E-02
_KCAL/MOL= 0.1593601117815568E-02
_KELVIN2006= 0.3166828861084835E-05
_KELVIN= 0.3166814820820034E-05
_JOULE= 0.4359748200000000E-17
_HERTZ2006= 0.1519829850815779E-15
_HERTZ= 0.1519829846011223E-15
_HZ2006= 0.1519829850815779E-15
_HZ= 0.1519829846011223E-15
_JPCAL=  4.184000000000000    
_PLANCK= 0.6626075540000000E-33
_TOA2006= 0.5291772490000000    
_TOA= 0.5291772090000000    
_TOANG2006= 0.5291772490000000    
_TOANG= 0.5291772090000000    
_TORAD= 0.1745329251994330E-01
_TOCM=  219474.6306700000    
_TODEBYE=  2.541580000000000    
_TOEV2006=  27.21139610000000    
_TOE= 0.4803242000000000E-09
_TOEV=  27.21138390000000    
_TOHERTZ2006=  6579683899900000.    
_TOHERTZ=  6579683920700000.    
_TOHZ2006=  6579683899900000.    
_TOHZ=  6579683920700000.    
_TOK2006=  315773.3000000000    
_TOK=  315774.7000000000    
_TOKCAL=  627.5096000000000    
_TOKELVIN2006=  315773.3000000000    
_TOKELVIN=  315774.7000000000    
_TOKJ=  2625.500000000000    
_TOKJOULE=  2625.500000000000    
_TOKG= 0.1660565586000000E-26
_ANG2006=  1.889725988578923    
_ANG=  1.889726131421507    
_ANGSTROM2006=  1.889725988578923    
_ANGSTROM=  1.889726131421507    
_RPAREF=  0.000000000000000    
_RPADISS=  0.000000000000000    
_IGNORE_UNDEF=  2.000000000000000    
_STRICTCHECK=  0.000000000000000    
_SEW_ONEEL=  0.000000000000000    
_CPPDONE=FALSE
_DKROLL_DONE=  0.000000000000000    
_FOCKDONE=TRUE
_GRADONE=FALSE
_HESSDONE=FALSE
_INTDONE=TRUE
_SCFDONE=TRUE
_MODUL_BLOCK=FALSE
_MODUL_CUDA=FALSE
_MODUL_SLATER=FALSE
_MODUL_MRCC=FALSE
_MODUL_NBO6=FALSE
_MODUL_NECI=TRUE
_MODUL_AIMS=TRUE
_MRCC_EXEC=
_FITC_AO_SAVED=FALSE
_FITC_MO_SAVED=FALSE
_SHARED_FS=TRUE
_LSTYP=SEWARD
_INTYP=INTS
_GEOMTYP=ZMAT
_GRADTYP=ALASKA
_DIRECT=FALSE
_DKHO= -1.000000000000000    
_SYNCM=  0.000000000000000    
_BASIS=$BSET
_ZORIENT=  1.000000000000000    
_NELEC=  2.000000000000000    
!SPIN=  0.000000000000000    
_OPTCONV= 0.1865109578336188E-05
_QSDSTEP=  0.000000000000000    
_QSDIRC=  0.000000000000000    
_PROGRAM=OPTG
_CPUSTEP=  0.000000000000000    
_SYSSTEP=  0.000000000000000    
_WALLSTEP=  0.000000000000000    
!DFSCF=  0.000000000000000    
!SCSGRD=  0.000000000000000    
_BASINP=  610.0000000000000    
_CPUTOT=  1.580000000000000    
_CPUSORT= 0.1600000000000001    
_SYSSORT= 0.3000000000000000E-01
_WALLSORT= 0.1900000013411045    
_DFTEXFAC=  1.000000000000000    
_DMX=  0.000000000000000    
_DMY=  0.000000000000000    
_DMZ=  0.000000000000000    
_DMX_SCF=  0.000000000000000    
_DMY_SCF=  0.000000000000000    
_DMZ_SCF=  0.000000000000000    
_EHOMO=-0.5968162906502827    
_ELUMO= 0.4715827908687762E-01
_ENERGY= -1.133508514814842    
_ENUC= 0.7211961461578364    
_GRADENERG= -1.133508514813626    
_GRADEXFAC=  9999.000000000000    
_GRADMETHOD=  1.000000000000000    
_NMRMETHOD=  0.000000000000000    
_VIRIAL=-0.1052892540577916E-05
!GRID_FREEZE= -1.000000000000000    
_ITERATIONS=  4.000000000000000    
_LASTNELEC=  2.000000000000000    
_LASTSPIN=  0.000000000000000    
_LASTSYM=  1.000000000000000    
_MPP_PROG=  0.000000000000000    
_NPROC_MPP=  1.000000000000000    
_NPROC_MPPX=  1.000000000000000    
_NPROC_SMP=  1.000000000000000    
_NUMSTEP=  0.000000000000000    
_OPTCONVMX= 0.1865109578336188E-05
_OPTCONVRMS= 0.1865109578336188E-05
_OPTGRAD= 0.7593430639829535E-06
_OPTGRADMX= 0.7593430639829535E-06
_OPTGRADRMS= 0.7593430639829535E-06
_OPTSTEP=  1.000000000000000    
_ORBITAL=  2100.200000000000    
_PI=  3.141592653589793    
_SEIG_MIN= 0.2930327303159186E-04
_SEWPROP=TRUE
_STATUS=  1.000000000000000    
_SYSTOT= 0.1500000000000000    
_VERSION=  2012001.000000000    
_WALLTOT=  3.360000000000000    
_DATE=28-Aug-15
_LASTORB=RHF
_MACHINE=Linux-3.2.0-89-generic/sce-chem-c01105(x86_64) 64 bit serial version
_OUTPUT=/home/s1267651/phd_mini_24Aug2015/nikolaz/molpro2/AB.xml
_PGROUP=D2h
_TIME=16:01:49
_LIBMOL=/usr/local/molpro/molprop_2012_1_Linux_x86_64_i8/lib/
!VIBCNT=  0.000000000000000    
!RGHFCNT=  0.000000000000000    
!SURFREC=  0.000000000000000    
!POLYREC=  0.000000000000000    
!DIPREC=  0.000000000000000    
!VSCFREC=  0.000000000000000    
!VCIREC=  0.000000000000000    
!PVCIREC=  0.000000000000000    
!VMP2REC=  0.000000000000000    
!VMCSCFREC=  0.000000000000000    
!VMRCIREC=  0.000000000000000    
!VIBINFO=  0.000000000000000    
!GAREC=  0.000000000000000    
!SCFORB=  21002.00000000000    
!NEWMOL=  0.000000000000000    
!NEWSYM=  0.000000000000000    
_SLFILES=slscratch
_NGSSTO=  9.000000000000000    
_SIN=SIN
_COS=COS
_TAN=TAN
_ACOS=ACOS
_ASIN=ASIN
_ATAN=ATAN
_COSH=COSH
_SINH=SINH
_TANH=TANH
_ABS=ABS
_MOD=MOD
_ERF=ERF
_REFC=REFC
_ERFC=ERFC
_HYPOT=HYPOT
_J0=J0
_J1=J1
_JN=JN
_GAMMA=GAMMA
_LGAMMA=LGAMMA
_Y0=Y0
_Y1=Y1
_YN=YN
_EXP=EXP
_LOG=LOG
_LOG10=LOG10
_SQRT=SQRT
_INT=INT
_NINT=NINT
_MAX=MAX
_MIN=MIN
_COSMO=  0.000000000000000    
_COSMOIT=  0.000000000000000    
_COSMOES=  0.000000000000000    
_COSMOEDS=  0.000000000000000    
_COSMOEC=  0.000000000000000    
_COSMOEDCORR=  0.000000000000000    
_FEPSI=  1.000000000000000    
_SL_IsMM=  0.000000000000000    
_SL_NSYM=  8.000000000000000    
_SL_System_BitSw=  0.000000000000000    
_SL_Unique_atoms=  0.000000000000000    
_SL_GRAD=  0.000000000000000    
_SL_MAXUPD_Hess=  5.000000000000000    
_SL_N_PRINT_COD=  5.000000000000000    
_SL_PRINT_CODES=  0.000000000000000    
_SL_BasType=  0.000000000000000    
_SL_Energy_Pred=  0.000000000000000    
_SL_New_Coords=  0.000000000000000    
_SL_Total_Nuclea=  0.000000000000000    
_SL_Highest_Mltp=  0.000000000000000    
_SL_Ref_Geom=  0.000000000000000    
_SL_Symmetry_ope=  1.000000000000000    
_SL_agrad=  0.000000000000000    
_SL_GrdMax=  0.000000000000000    
_SL_GrdNorm=  0.000000000000000    
_SL_GrdRMS=  0.000000000000000    
_SL_Hss_Q=  0.000000000000000    
_SL_Hss_X=  0.000000000000000    
_SL_BMxOld=  0.000000000000000    
_SL_KtB=  0.000000000000000    
!LATTICE= -1.000000000000000    
!NEWLATTICE=  0.000000000000000    
!LATGRAD_VAR=FALSE
!SEW_LATTICE=  1.000000000000000    
!LOCAL=  0.000000000000000    
!SAVEDOM= -1.000000000000000    
!RESTDOM= -1.000000000000000    
!SAVEDOM_HF= -1.000000000000000    
!RESTDOM_HF= -1.000000000000000    
!HESSREC=  0.000000000000000    
!FREQREC=  0.000000000000000    
!NMODREC=  0.000000000000000    
!GTASKS=  0.000000000000000    
!HTASKS=  0.000000000000000    
!THRCHG= 0.1000000000000000    
!DEBUG= -1.000000000000000    
!CFIT_CPHF=  0.000000000000000    
!RDOMAUX_CPHF=  5.000000000000000    
!THRAO_CPHF= 0.9999999999999999E-11
!THRMO_CPHF= 0.9999999999999999E-11
!THROV_CPHF= 0.1000000000000000E-11
!THRSW_CPHF= 0.1000000000000000E-09
!THRPROD_CPHF= 0.9999999999999999E-11
!THRAOPR_CPHF= 0.1000000000000000E-11
!CFIT_SCFGRD=  0.000000000000000    
!RDOMAUX_SCFGRD=  7.000000000000000    
!THRAO_SCFGRD= 0.9999999999999999E-11
!THRMO_SCFGRD= 0.9999999999999999E-11
!THROV_SCFGRD= 0.1000000000000000E-11
!THRSW_SCFGRD= 0.1000000000000000E-09
!THRPROD_SCFGRD= 0.9999999999999999E-11
!THRAOPR_SCFGRD= 0.1000000000000000E-11
!LOCFIT_SCF=  0.000000000000000    
!LOCFIT_MP2= -1.000000000000000    
_RIDOM=  0.000000000000000    
!CC2_METHOD=  0.000000000000000    
_BASIS2006=FALSE
_SVDDEL= -1.000000000000000    
_SVDDELA= -1.000000000000000    
_SVDDELP= -1.000000000000000    
_SVDDELF= -1.000000000000000    
_SVDDELS= -1.000000000000000    
_SVDDEL_ABS= -1.000000000000000    
_SVDDELA_ABS= -1.000000000000000    
_SVDDELP_ABS= -1.000000000000000    
_SVDDELF_ABS= -1.000000000000000    
_SVDDELS_ABS= -1.000000000000000    
_MAXBASIS=  0.000000000000000    
!OPT_CONICAL=  0.000000000000000    
!CLEARSP_JGRID=  0.000000000000000    
_4EXT_NDISKS=  1.000000000000000    
!ZMP=  0.000000000000000    
_MAXIT_ZMP=  500.0000000000000    
_MAXDIS_ZMP=  100.0000000000000    
_ACCU_ZMP=  14.00000000000000    
_SHIFTA_ZMP= -100.0000000000000    
!EMBEDFLAG=  1.000000000000000    
!EMBED=FALSE
!EMBED_F12=FALSE
!EMBEDNUC=  0.000000000000000    
_EMBEDENERGY=  0.000000000000000    
_KSPACETIME=  0.000000000000000    
_RSPACETIME=  0.000000000000000    
!EMBED_DFC=FALSE
!NUM_VOIDS=  0.000000000000000    
_IBODY=  0.000000000000000    
_EMBE_TOTAL=  0.000000000000000    
_EMBE_HF=  0.000000000000000    
_EMBE_CORR=  0.000000000000000    
!EDFT=  0.000000000000000    
_IFASTLATGRAD=  0.000000000000000    
_SINDEX=  0.000000000000000    
A=H
B=H
BSET=AUG-CC-PVQZ
R=  1.386585335109578    
GX1=  0.000000000000000    
GY1=  0.000000000000000    
GZ1=-0.6932926675547891    
GX2=  0.000000000000000    
GY2=  0.000000000000000    
GZ2= 0.6932926675547891    
METH=OPTG
STR=../input/HH_AUG-CC-PVQZ_OPTG.mld
[Atoms] Angs
H     1    1         0.0000000000        0.0000000000       -0.3668746788
H     2    1         0.0000000000        0.0000000000        0.3668746788
[GTO]
  1 0
 s    6  1.00
  0.8264000000D+02  0.2006000801D-02
  0.1241000000D+02  0.1534300612D-01
  0.2824000000D+01  0.7557903017D-01
  0.7977000000D+00  0.2568751025D+00
  0.2581000000D+00  0.4973681985D+00
  0.8989000000D-01  0.2961331182D+00
 s    6  1.00
  0.8264000000D+02  0.0000000000D+00
  0.1241000000D+02  0.0000000000D+00
  0.2824000000D+01  0.0000000000D+00
  0.7977000000D+00  0.1000000000D+01
  0.2581000000D+00  0.0000000000D+00
  0.8989000000D-01  0.0000000000D+00
 s    6  1.00
  0.8264000000D+02  0.0000000000D+00
  0.1241000000D+02  0.0000000000D+00
  0.2824000000D+01  0.0000000000D+00
  0.7977000000D+00  0.0000000000D+00
  0.2581000000D+00  0.1000000000D+01
  0.8989000000D-01  0.0000000000D+00
 s    6  1.00
  0.8264000000D+02  0.0000000000D+00
  0.1241000000D+02  0.0000000000D+00
  0.2824000000D+01  0.0000000000D+00
  0.7977000000D+00  0.0000000000D+00
  0.2581000000D+00  0.0000000000D+00
  0.8989000000D-01  0.1000000000D+01
 s    1  1.00
  0.2363000000D-01  0.1000000000D+01
 p    1  1.00
  0.2292000000D+01  0.1000000000D+01
 p    1  1.00
  0.8380000000D+00  0.1000000000D+01
 p    1  1.00
  0.2920000000D+00  0.1000000000D+01
 p    1  1.00
  0.8480000000D-01  0.1000000000D+01
 d    1  1.00
  0.2062000000D+01  0.1000000000D+01
 d    1  1.00
  0.6620000000D+00  0.1000000000D+01
 d    1  1.00
  0.1900000000D+00  0.1000000000D+01
 f    1  1.00
  0.1397000000D+01  0.1000000000D+01
 f    1  1.00
  0.3600000000D+00  0.1000000000D+01
  
  2 0
 s    6  1.00
  0.8264000000D+02  0.2006000801D-02
  0.1241000000D+02  0.1534300612D-01
  0.2824000000D+01  0.7557903017D-01
  0.7977000000D+00  0.2568751025D+00
  0.2581000000D+00  0.4973681985D+00
  0.8989000000D-01  0.2961331182D+00
 s    6  1.00
  0.8264000000D+02  0.0000000000D+00
  0.1241000000D+02  0.0000000000D+00
  0.2824000000D+01  0.0000000000D+00
  0.7977000000D+00  0.1000000000D+01
  0.2581000000D+00  0.0000000000D+00
  0.8989000000D-01  0.0000000000D+00
 s    6  1.00
  0.8264000000D+02  0.0000000000D+00
  0.1241000000D+02  0.0000000000D+00
  0.2824000000D+01  0.0000000000D+00
  0.7977000000D+00  0.0000000000D+00
  0.2581000000D+00  0.1000000000D+01
  0.8989000000D-01  0.0000000000D+00
 s    6  1.00
  0.8264000000D+02  0.0000000000D+00
  0.1241000000D+02  0.0000000000D+00
  0.2824000000D+01  0.0000000000D+00
  0.7977000000D+00  0.0000000000D+00
  0.2581000000D+00  0.0000000000D+00
  0.8989000000D-01  0.1000000000D+01
 s    1  1.00
  0.2363000000D-01  0.1000000000D+01
 p    1  1.00
  0.2292000000D+01  0.1000000000D+01
 p    1  1.00
  0.8380000000D+00  0.1000000000D+01
 p    1  1.00
  0.2920000000D+00  0.1000000000D+01
 p    1  1.00
  0.8480000000D-01  0.1000000000D+01
 d    1  1.00
  0.2062000000D+01  0.1000000000D+01
 d    1  1.00
  0.6620000000D+00  0.1000000000D+01
 d    1  1.00
  0.1900000000D+00  0.1000000000D+01
 f    1  1.00
  0.1397000000D+01  0.1000000000D+01
 f    1  1.00
  0.3600000000D+00  0.1000000000D+01
 
 
[MO]
 Sym=      1.1
 Ene=      -0.5968
 Spin= Alpha
 Occup=    2.000000
1 0.82029241550779
2 -0.021819809680788
3 -0.14818446434189
4 -0.14863341106773
5 -0.000585697568240
6 0.0
7 0.0
8 0.005745875743286
9 0.0
10 0.0
11 0.011713909866331
12 0.0
13 0.0
14 0.009707511305883
15 0.0
16 0.0
17 0.004632256039062
18 -0.000771214417083
19 -0.000771214417083
20 0.001542428834166
21 0.0
22 0.0
23 0.0
24 0.000747442086718
25 0.000747442086718
26 -0.001494884173436
27 0.0
28 0.0
29 0.0
30 0.000843816425871
31 0.000843816425871
32 -0.001687632851741
33 0.0
34 0.0
35 0.0
36 0.0
37 0.0
38 -0.000161506453410
39 0.0
40 0.0
41 0.000108341822589
42 0.0
43 0.0
44 0.000108341822589
45 0.0
46 0.0
47 0.0
48 -0.001208684424111
49 0.0
50 0.0
51 0.000810810160697
52 0.0
53 0.0
54 0.000810810160697
55 0.0
56 0.82029241550779
57 -0.021819809680788
58 -0.14818446434189
59 -0.14863341106773
60 -0.000585697568240
61 0.0
62 0.0
63 -0.005745875743286
64 0.0
65 0.0
66 -0.011713909866331
67 0.0
68 0.0
69 -0.009707511305883
70 0.0
71 0.0
72 -0.004632256039062
73 -0.000771214417083
74 -0.000771214417083
75 0.001542428834166
76 0.0
77 0.0
78 0.0
79 0.000747442086718
80 0.000747442086718
81 -0.001494884173436
82 0.0
83 0.0
84 0.0
85 0.000843816425871
86 0.000843816425871
87 -0.001687632851741
88 0.0
89 0.0
90 0.0
91 0.0
92 0.0
93 0.000161506453410
94 0.0
95 0.0
96 -0.000108341822589
97 0.0
98 0.0
99 -0.000108341822589
100 0.0
101 0.0
102 0.0
103 0.001208684424111
104 0.0
105 0.0
106 -0.000810810160697
107 0.0
108 0.0
109 -0.000810810160697
110 0.0
 Sym=      2.1
 Ene=       0.0472
 Spin= Alpha
 Occup=    0.000000
1 -0.11537951136236
2 -0.007219833392190
3 0.15344039929363
4 -0.41456409623130
5 0.72785310004802
6 0.0
7 0.0
8 -0.004756240704803
9 0.0
10 0.0
11 0.011582020751162
12 0.0
13 0.0
14 -0.084958850220260
15 0.0
16 0.0
17 0.053235425618565
18 -0.000524439797091
19 -0.000524439797091
20 0.001048879594182
21 0.0
22 0.0
23 0.0
24 0.004198741550463
25 0.004198741550463
26 -0.008397483100925
27 0.0
28 0.0
29 0.0
30 0.012731964615322
31 0.012731964615322
32 -0.025463929230645
33 0.0
34 0.0
35 0.0
36 0.0
37 0.0
38 0.001239466439067
39 0.0
40 0.0
41 -0.000831459364075
42 0.0
43 0.0
44 -0.000831459364075
45 0.0
46 0.0
47 0.0
48 -0.007403612639000
49 0.0
50 0.0
51 0.004966494341964
52 0.0
53 0.0
54 0.004966494341964
55 0.0
56 -0.11537951136236
57 -0.007219833392190
58 0.15344039929363
59 -0.41456409623130
60 0.72785310004802
61 0.0
62 0.0
63 0.004756240704803
64 0.0
65 0.0
66 -0.011582020751162
67 0.0
68 0.0
69 0.084958850220260
70 0.0
71 0.0
72 -0.053235425618565
73 -0.000524439797091
74 -0.000524439797091
75 0.001048879594182
76 0.0
77 0.0
78 0.0
79 0.004198741550463
80 0.004198741550463
81 -0.008397483100925
82 0.0
83 0.0
84 0.0
85 0.012731964615322
86 0.012731964615322
87 -0.025463929230645
88 0.0
89 0.0
90 0.0
91 0.0
92 0.0
93 -0.001239466439067
94 0.0
95 0.0
96 0.000831459364075
97 0.0
98 0.0
99 0.000831459364075
100 0.0
101 0.0
102 0.0
103 0.007403612639000
104 0.0
105 0.0
106 -0.004966494341964
107 0.0
108 0.0
109 -0.004966494341964
110 0.0
 Sym=      1.5
 Ene=       0.0475
 Spin= Alpha
 Occup=    0.000000
1 0.051606539299244
2 -0.000929774460712
3 0.98192569282678
4 6.79050680254974
5 5.91986323141226
6 0.0
7 0.0
8 0.000605967973552
9 0.0
10 0.0
11 -0.016640317154437
12 0.0
13 0.0
14 0.38370085513579
15 0.0
16 0.0
17 1.61422470594762
18 0.001039912265756
19 0.001039912265756
20 -0.002079824531511
21 0.0
22 0.0
23 0.0
24 -0.003605386618370
25 -0.003605386618370
26 0.007210773236740
27 0.0
28 0.0
29 0.0
30 -0.055999371031418
31 -0.055999371031418
32 0.11199874206284
33 0.0
34 0.0
35 0.0
36 0.0
37 0.0
38 -0.000185779462243
39 0.0
40 0.0
41 0.000124624651920
42 0.0
43 0.0
44 0.000124624651920
45 0.0
46 0.0
47 0.0
48 0.000268283901785
49 0.0
50 0.0
51 -0.000179970312498
52 0.0
53 0.0
54 -0.000179970312498
55 0.0
56 -0.051606539299244
57 0.000929774460712
58 -0.98192569282678
59 -6.79050680254974
60 -5.91986323141226
61 0.0
62 0.0
63 0.000605967973552
64 0.0
65 0.0
66 -0.016640317154437
67 0.0
68 0.0
69 0.38370085513579
70 0.0
71 0.0
72 1.61422470594762
73 -0.001039912265756
74 -0.001039912265756
75 0.002079824531511
76 0.0
77 0.0
78 0.0
79 0.003605386618370
80 0.003605386618370
81 -0.007210773236740
82 0.0
83 0.0
84 0.0
85 0.055999371031418
86 0.055999371031418
87 -0.11199874206284
88 0.0
89 0.0
90 0.0
91 0.0
92 0.0
93 -0.000185779462243
94 0.0
95 0.0
96 0.000124624651920
97 0.0
98 0.0
99 0.000124624651920
100 0.0
101 0.0
102 0.0
103 0.000268283901785
104 0.0
105 0.0
106 -0.000179970312498
107 0.0
108 0.0
109 -0.000179970312498
110 0.0
 Sym=      2.5
 Ene=       0.1613
 Spin= Alpha
 Occup=    0.000000
1 -0.19484228944841
2 -0.001181479268842
3 2.58055495641735
4 22.1856041582545
5 5.05418324144455
6 0.0
7 0.0
8 0.006811020902878
9 0.0
10 0.0
11 -0.041039859260271
12 0.0
13 0.0
14 1.07222015048662
15 0.0
16 0.0
17 5.48035298868241
18 0.002464603277792
19 0.002464603277792
20 -0.004929206555583
21 0.0
22 0.0
23 0.0
24 -0.007235463717519
25 -0.007235463717519
26 0.014470927435038
27 0.0
28 0.0
29 0.0
30 -0.15466918479058
31 -0.15466918479058
32 0.30933836958116
33 0.0
34 0.0
35 0.0
36 0.0
37 0.0
38 -0.000501989650097
39 0.0
40 0.0
41 0.000336744894485
42 0.0
43 0.0
44 0.000336744894485
45 0.0
46 0.0
47 0.0
48 -0.000009217643076
49 0.0
50 0.0
51 0.000006183382953
52 0.0
53 0.0
54 0.000006183382953
55 0.0
56 0.19484228944841
57 0.001181479268842
58 -2.58055495641735
59 -22.1856041582545
60 -5.05418324144455
61 0.0
62 0.0
63 0.006811020902878
64 0.0
65 0.0
66 -0.041039859260271
67 0.0
68 0.0
69 1.07222015048662
70 0.0
71 0.0
72 5.48035298868241
73 -0.002464603277792
74 -0.002464603277792
75 0.004929206555583
76 0.0
77 0.0
78 0.0
79 0.007235463717519
80 0.007235463717519
81 -0.014470927435038
82 0.0
83 0.0
84 0.0
85 0.15466918479058
86 0.15466918479058
87 -0.30933836958116
88 0.0
89 0.0
90 0.0
91 0.0
92 0.0
93 -0.000501989650097
94 0.0
95 0.0
96 0.000336744894485
97 0.0
98 0.0
99 0.000336744894485
100 0.0
101 0.0
102 0.0
103 -0.000009217643076
104 0.0
105 0.0
106 0.000006183382953
107 0.0
108 0.0
109 0.000006183382953
110 0.0
 Sym=      1.3
 Ene=       0.1739
 Spin= Alpha
 Occup=    0.000000
1 0.0
2 0.0
3 0.0
4 0.0
5 0.0
6 0.0
7 -0.006093983649150
8 0.0
9 0.0
10 0.041264373325087
11 0.0
12 0.0
13 -0.12735506034001
14 0.0
15 0.0
16 0.56954282365638
17 0.0
18 0.0
19 0.0
20 0.0
21 0.0
22 0.0
23 -0.001880292194354
24 0.0
25 0.0
26 0.0
27 0.0
28 0.0
29 0.009183750590010
30 0.0
31 0.0
32 0.0
33 0.0
34 0.0
35 0.046778072746283
36 0.0
37 0.001670305678539
38 0.0
39 0.0
40 0.000746983408084
41 0.0
42 0.0
43 -0.002987933632334
44 0.0
45 0.0
46 0.0
47 -0.018330029824884
48 0.0
49 0.0
50 -0.008197438543608
51 0.0
52 0.0
53 0.032789754174432
54 0.0
55 0.0
56 0.0
57 0.0
58 0.0
59 0.0
60 0.0
61 0.0
62 -0.006093983649150
63 0.0
64 0.0
65 0.041264373325087
66 0.0
67 0.0
68 -0.12735506034001
69 0.0
70 0.0
71 0.56954282365638
72 0.0
73 0.0
74 0.0
75 0.0
76 0.0
77 0.0
78 0.001880292194354
79 0.0
80 0.0
81 0.0
82 0.0
83 0.0
84 -0.009183750590010
85 0.0
86 0.0
87 0.0
88 0.0
89 0.0
90 -0.046778072746283
91 0.0
92 0.001670305678539
93 0.0
94 0.0
95 0.000746983408084
96 0.0
97 0.0
98 -0.002987933632334
99 0.0
100 0.0
101 0.0
102 -0.018330029824884
103 0.0
104 0.0
105 -0.008197438543608
106 0.0
107 0.0
108 0.032789754174432
109 0.0
110 0.0
 Sym=      1.2
 Ene=       0.1739
 Spin= Alpha
 Occup=    0.000000
1 0.0
2 0.0
3 0.0
4 0.0
5 0.0
6 -0.006093983649150
7 0.0
8 0.0
9 0.041264373325087
10 0.0
11 0.0
12 -0.12735506034001
13 0.0
14 0.0
15 0.56954282365637
16 0.0
17 0.0
18 0.0
19 0.0
20 0.0
21 0.0
22 -0.001880292194354
23 0.0
24 0.0
25 0.0
26 0.0
27 0.0
28 0.009183750590010
29 0.0
30 0.0
31 0.0
32 0.0
33 0.0
34 0.046778072746282
35 0.0
36 0.001670305678539
37 0.0
38 0.0
39 0.000746983408084
40 0.0
41 0.0
42 -0.002987933632334
43 0.0
44 0.0
45 0.0
46 -0.018330029824884
47 0.0
48 0.0
49 -0.008197438543608
50 0.0
51 0.0
52 0.032789754174431
53 0.0
54 0.0
55 0.0
56 0.0
57 0.0
58 0.0
59 0.0
60 0.0
61 -0.006093983649150
62 0.0
63 0.0
64 0.041264373325087
65 0.0
66 0.0
67 -0.12735506034001
68 0.0
69 0.0
70 0.56954282365637
71 0.0
72 0.0
73 0.0
74 0.0
75 0.0
76 0.0
77 0.001880292194354
78 0.0
79 0.0
80 0.0
81 0.0
82 0.0
83 -0.009183750590010
84 0.0
85 0.0
86 0.0
87 0.0
88 0.0
89 -0.046778072746282
90 0.0
91 0.001670305678539
92 0.0
93 0.0
94 0.000746983408084
95 0.0
96 0.0
97 -0.002987933632334
98 0.0
99 0.0
100 0.0
101 -0.018330029824884
102 0.0
103 0.0
104 -0.008197438543608
105 0.0
106 0.0
107 0.032789754174431
108 0.0
109 0.0
110 0.0
 Sym=      3.1
 Ene=       0.2286
 Spin= Alpha
 Occup=    0.000000
1 0.12300117274032
2 -0.41030542392046
3 -0.70706194445625
4 -0.51368748452575
5 0.40223144194820
6 0.0
7 0.0
8 -0.018410461514951
9 0.0
10 0.0
11 -0.013240125529479
12 0.0
13 0.0
14 0.87408492662286
15 0.0
16 0.0
17 3.23341208644615
18 0.002859773318964
19 0.002859773318964
20 -0.005719546637928
21 0.0
22 0.0
23 0.0
24 -0.081936443704312
25 -0.081936443704312
26 0.16387288740862
27 0.0
28 0.0
29 0.0
30 -0.35388315703556
31 -0.35388315703556
32 0.70776631407112
33 0.0
34 0.0
35 0.0
36 0.0
37 0.0
38 0.024018439797497
39 0.0
40 0.0
41 -0.016112059230207
42 0.0
43 0.0
44 -0.016112059230207
45 0.0
46 0.0
47 0.0
48 0.094490005353086
49 0.0
50 0.0
51 -0.063385822549146
52 0.0
53 0.0
54 -0.063385822549146
55 0.0
56 0.12300117274032
57 -0.41030542392046
58 -0.70706194445625
59 -0.51368748452575
60 0.40223144194820
61 0.0
62 0.0
63 0.018410461514951
64 0.0
65 0.0
66 0.013240125529479
67 0.0
68 0.0
69 -0.87408492662286
70 0.0
71 0.0
72 -3.23341208644615
73 0.002859773318964
74 0.002859773318964
75 -0.005719546637928
76 0.0
77 0.0
78 0.0
79 -0.081936443704312
80 -0.081936443704312
81 0.16387288740862
82 0.0
83 0.0
84 0.0
85 -0.35388315703556
86 -0.35388315703556
87 0.70776631407112
88 0.0
89 0.0
90 0.0
91 0.0
92 0.0
93 -0.024018439797497
94 0.0
95 0.0
96 0.016112059230207
97 0.0
98 0.0
99 0.016112059230207
100 0.0
101 0.0
102 0.0
103 -0.094490005353086
104 0.0
105 0.0
106 0.063385822549146
107 0.0
108 0.0
109 0.063385822549146
110 0.0
 Sym=      1.6
 Ene=       0.2333
 Spin= Alpha
 Occup=    0.000000
1 0.0
2 0.0
3 0.0
4 0.0
5 0.0
6 -0.002677747561314
7 0.0
8 0.0
9 0.11670856494193
10 0.0
11 0.0
12 1.58714383336188
13 0.0
14 0.0
15 4.18992858894106
16 0.0
17 0.0
18 0.0
19 0.0
20 0.0
21 0.0
22 0.001769486641821
23 0.0
24 0.0
25 0.0
26 0.0
27 0.0
28 0.23683384651785
29 0.0
30 0.0
31 0.0
32 0.0
33 0.0
34 0.90000816479425
35 0.0
36 -0.016172786168328
37 0.0
38 0.0
39 -0.007232689851590
40 0.0
41 0.0
42 0.028930759406360
43 0.0
44 0.0
45 0.0
46 -0.074093330885359
47 0.0
48 0.0
49 -0.033135544907810
50 0.0
51 0.0
52 0.13254217963124
53 0.0
54 0.0
55 0.0
56 0.0
57 0.0
58 0.0
59 0.0
60 0.0
61 0.002677747561314
62 0.0
63 0.0
64 -0.11670856494193
65 0.0
66 0.0
67 -1.58714383336188
68 0.0
69 0.0
70 -4.18992858894106
71 0.0
72 0.0
73 0.0
74 0.0
75 0.0
76 0.0
77 0.001769486641821
78 0.0
79 0.0
80 0.0
81 0.0
82 0.0
83 0.23683384651785
84 0.0
85 0.0
86 0.0
87 0.0
88 0.0
89 0.90000816479425
90 0.0
91 0.016172786168328
92 0.0
93 0.0
94 0.007232689851590
95 0.0
96 0.0
97 -0.028930759406360
98 0.0
99 0.0
100 0.0
101 0.074093330885359
102 0.0
103 0.0
104 0.033135544907810
105 0.0
106 0.0
107 -0.13254217963124
108 0.0
109 0.0
110 0.0
 Sym=      1.7
 Ene=       0.2333
 Spin= Alpha
 Occup=    0.000000
1 0.0
2 0.0
3 0.0
4 0.0
5 0.0
6 0.0
7 -0.002677747561313
8 0.0
9 0.0
10 0.11670856494192
11 0.0
12 0.0
13 1.58714383336184
14 0.0
15 0.0
16 4.18992858894105
17 0.0
18 0.0
19 0.0
20 0.0
21 0.0
22 0.0
23 0.001769486641820
24 0.0
25 0.0
26 0.0
27 0.0
28 0.0
29 0.23683384651783
30 0.0
31 0.0
32 0.0
33 0.0
34 0.0
35 0.90000816479423
36 0.0
37 -0.016172786168326
38 0.0
39 0.0
40 -0.007232689851589
41 0.0
42 0.0
43 0.028930759406357
44 0.0
45 0.0
46 0.0
47 -0.074093330885357
48 0.0
49 0.0
50 -0.033135544907808
51 0.0
52 0.0
53 0.13254217963123
54 0.0
55 0.0
56 0.0
57 0.0
58 0.0
59 0.0
60 0.0
61 0.0
62 0.002677747561313
63 0.0
64 0.0
65 -0.11670856494192
66 0.0
67 0.0
68 -1.58714383336184
69 0.0
70 0.0
71 -4.18992858894105
72 0.0
73 0.0
74 0.0
75 0.0
76 0.0
77 0.0
78 0.001769486641820
79 0.0
80 0.0
81 0.0
82 0.0
83 0.0
84 0.23683384651783
85 0.0
86 0.0
87 0.0
88 0.0
89 0.0
90 0.90000816479423
91 0.0
92 0.016172786168326
93 0.0
94 0.0
95 0.007232689851589
96 0.0
97 0.0
98 -0.028930759406357
99 0.0
100 0.0
101 0.0
102 0.074093330885357
103 0.0
104 0.0
105 0.033135544907808
106 0.0
107 0.0
108 -0.13254217963123
109 0.0
110 0.0
 Sym=      4.1
 Ene=       0.3262
 Spin= Alpha
 Occup=    0.000000
1 -0.42886381012098
2 -0.22085774122188
3 -1.44528323204342
4 1.68037009482275
5 -0.39364159763786
6 0.0
7 0.0
8 0.003885512283113
9 0.0
10 0.0
11 -0.099803930712558
12 0.0
13 0.0
14 1.06661683437993
15 0.0
16 0.0
17 1.58879141204864
18 0.005977961855048
19 0.005977961855048
20 -0.011955923710096
21 0.0
22 0.0
23 0.0
24 -0.079394431211802
25 -0.079394431211802
26 0.15878886242360
27 0.0
28 0.0
29 0.0
30 -0.32782870875431
31 -0.32782870875430
32 0.65565741750861
33 0.0
34 0.0
35 0.0
36 0.0
37 0.0
38 0.008792402769928
39 0.0
40 0.0
41 -0.005898123083735
42 0.0
43 0.0
44 -0.005898123083735
45 0.0
46 0.0
47 0.0
48 0.11051247052100
49 0.0
50 0.0
51 -0.074134018933917
52 0.0
53 0.0
54 -0.074134018933917
55 0.0
56 -0.42886381012098
57 -0.22085774122188
58 -1.44528323204342
59 1.68037009482275
60 -0.39364159763786
61 0.0
62 0.0
63 -0.003885512283113
64 0.0
65 0.0
66 0.099803930712558
67 0.0
68 0.0
69 -1.06661683437993
70 0.0
71 0.0
72 -1.58879141204864
73 0.005977961855048
74 0.005977961855048
75 -0.011955923710096
76 0.0
77 0.0
78 0.0
79 -0.079394431211802
80 -0.079394431211802
81 0.15878886242360
82 0.0
83 0.0
84 0.0
85 -0.32782870875431
86 -0.32782870875430
87 0.65565741750861
88 0.0
89 0.0
90 0.0
91 0.0
92 0.0
93 -0.008792402769928
94 0.0
95 0.0
96 0.005898123083735
97 0.0
98 0.0
99 0.005898123083735
100 0.0
101 0.0
102 0.0
103 -0.11051247052100
104 0.0
105 0.0
106 0.074134018933917
107 0.0
108 0.0
109 0.074134018933917
110 0.0
 Sym=      3.5
 Ene=       0.3658
 Spin= Alpha
 Occup=    0.000000
1 -0.42885792307958
2 0.24642619348303
3 -0.62216660343750
4 -50.2476318946614
5 -3.85721593673899
6 0.0
7 0.0
8 -0.005193680697654
9 0.0
10 0.0
11 0.29160340467788
12 0.0
13 0.0
14 -0.56250249207060
15 0.0
16 0.0
17 -10.9123709061598
18 -0.009327159107803
19 -0.009327159107802
20 0.018654318215605
21 0.0
22 0.0
23 0.0
24 -0.042706124576344
25 -0.042706124576344
26 0.085412249152688
27 0.0
28 0.0
29 0.0
30 0.14892319787493
31 0.14892319787493
32 -0.29784639574987
33 0.0
34 0.0
35 0.0
36 0.0
37 0.0
38 0.011561792705064
39 0.0
40 0.0
41 -0.007755886329085
42 0.0
43 0.0
44 -0.007755886329085
45 0.0
46 0.0
47 0.0
48 0.010579890326033
49 0.0
50 0.0
51 -0.007097206189050
52 0.0
53 0.0
54 -0.007097206189051
55 0.0
56 0.42885792307958
57 -0.24642619348303
58 0.62216660343750
59 50.2476318946614
60 3.85721593673899
61 0.0
62 0.0
63 -0.005193680697654
64 0.0
65 0.0
66 0.29160340467788
67 0.0
68 0.0
69 -0.56250249207060
70 0.0
71 0.0
72 -10.9123709061598
73 0.009327159107803
74 0.009327159107802
75 -0.018654318215605
76 0.0
77 0.0
78 0.0
79 0.042706124576344
80 0.042706124576344
81 -0.085412249152688
82 0.0
83 0.0
84 0.0
85 -0.14892319787493
86 -0.14892319787493
87 0.29784639574987
88 0.0
89 0.0
90 0.0
91 0.0
92 0.0
93 0.011561792705064
94 0.0
95 0.0
96 -0.007755886329085
97 0.0
98 0.0
99 -0.007755886329085
100 0.0
101 0.0
102 0.0
103 0.010579890326033
104 0.0
105 0.0
106 -0.007097206189050
107 0.0
108 0.0
109 -0.007097206189051
110 0.0
 Sym=      1.4
 Ene=       0.6019
 Spin= Alpha
 Occup=    0.000000
1 0.0
2 0.0
3 0.0
4 0.0
5 0.0
6 0.0
7 0.0
8 0.0
9 0.0
10 0.0
11 0.0
12 0.0
13 0.0
14 0.0
15 0.0
16 0.0
17 0.0
18 0.0
19 0.0
20 0.0
21 0.018508946830616
22 0.0
23 0.0
24 0.0
25 0.0
26 0.0
27 -0.079584012294676
28 0.0
29 0.0
30 0.0
31 0.0
32 0.0
33 0.56474045145146
34 0.0
35 0.0
36 0.0
37 0.0
38 0.0
39 0.0
40 0.0
41 0.0
42 0.0
43 0.0
44 0.0
45 0.008032631109729
46 0.0
47 0.0
48 0.0
49 0.0
50 0.0
51 0.0
52 0.0
53 0.0
54 0.0
55 -0.045286017766807
56 0.0
57 0.0
58 0.0
59 0.0
60 0.0
61 0.0
62 0.0
63 0.0
64 0.0
65 0.0
66 0.0
67 0.0
68 0.0
69 0.0
70 0.0
71 0.0
72 0.0
73 0.0
74 0.0
75 0.0
76 0.018508946830616
77 0.0
78 0.0
79 0.0
80 0.0
81 0.0
82 -0.079584012294676
83 0.0
84 0.0
85 0.0
86 0.0
87 0.0
88 0.56474045145146
89 0.0
90 0.0
91 0.0
92 0.0
93 0.0
94 0.0
95 0.0
96 0.0
97 0.0
98 0.0
99 0.0
100 -0.008032631109729
101 0.0
102 0.0
103 0.0
104 0.0
105 0.0
106 0.0
107 0.0
108 0.0
109 0.0
110 0.045286017766807
 Sym=      5.1
 Ene=       0.6019
 Spin= Alpha
 Occup=    0.000000
1 -0.000000000000004
2 0.000000000000004
3 -0.000000000000000
4 0.000000000000002
5 -0.000000000000000
6 0.0
7 0.0
8 0.000000000000000
9 0.0
10 0.0
11 -0.000000000000001
12 0.0
13 0.0
14 -0.000000000000002
15 0.0
16 0.0
17 0.000000000000002
18 0.016029218152609
19 -0.016029218152609
20 0.000000000000000
21 0.0
22 0.0
23 0.0
24 -0.068921776382282
25 0.068921776382283
26 -0.000000000000001
27 0.0
28 0.0
29 0.0
30 0.48907957750166
31 -0.48907957750166
32 -0.000000000000000
33 0.0
34 0.0
35 0.0
36 0.0
37 0.0
38 -0.000000000000000
39 0.0
40 0.0
41 0.006956462600255
42 0.0
43 0.0
44 -0.006956462600255
45 0.0
46 0.0
47 0.0
48 -0.000000000000001
49 0.0
50 0.0
51 -0.039218841822288
52 0.0
53 0.0
54 0.039218841822289
55 0.0
56 -0.000000000000004
57 0.000000000000004
58 -0.000000000000000
59 0.000000000000002
60 -0.000000000000000
61 0.0
62 0.0
63 -0.000000000000000
64 0.0
65 0.0
66 0.000000000000001
67 0.0
68 0.0
69 0.000000000000002
70 0.0
71 0.0
72 -0.000000000000002
73 0.016029218152609
74 -0.016029218152609
75 0.000000000000000
76 0.0
77 0.0
78 0.0
79 -0.068921776382282
80 0.068921776382283
81 -0.000000000000001
82 0.0
83 0.0
84 0.0
85 0.48907957750166
86 -0.48907957750166
87 -0.000000000000000
88 0.0
89 0.0
90 0.0
91 0.0
92 0.0
93 0.000000000000000
94 0.0
95 0.0
96 -0.006956462600255
97 0.0
98 0.0
99 0.006956462600255