[Molden Format]
[Molpro variables]
_NUMVAR=  788.0000000000000    
_AVOGAD= 0.6022136736000000E+24
_BOLTZ= 0.1380658000000000E-22
_CLIGHT=  29979245800.00000    
_EV2006= 0.3674930886769165E-01
_EV= 0.3674932534394180E-01
_ENULL= 0.8854187817000000E-11
_KJOULE= 0.3808798324128737E-03
_KJOULE/MOL= 0.3808798324128737E-03
_CM= 0.4556335267302901E-05
_CM-1= 0.4556335267302901E-05
_DEB2SI= 0.3335641000000000E-29
_AMU2AU=  1822.888390000000    
_KCAL= 0.1593601117815568E-02
_KCAL/MOL= 0.1593601117815568E-02
_KELVIN2006= 0.3166828861084835E-05
_KELVIN= 0.3166814820820034E-05
_JOULE= 0.4359748200000000E-17
_HERTZ2006= 0.1519829850815779E-15
_HERTZ= 0.1519829846011223E-15
_HZ2006= 0.1519829850815779E-15
_HZ= 0.1519829846011223E-15
_JPCAL=  4.184000000000000    
_PLANCK= 0.6626075540000000E-33
_TOA2006= 0.5291772490000000    
_TOA= 0.5291772090000000    
_TOANG2006= 0.5291772490000000    
_TOANG= 0.5291772090000000    
_TORAD= 0.1745329251994330E-01
_TOCM=  219474.6306700000    
_TODEBYE=  2.541580000000000    
_TOEV2006=  27.21139610000000    
_TOE= 0.4803242000000000E-09
_TOEV=  27.21138390000000    
_TOHERTZ2006=  6579683899900000.    
_TOHERTZ=  6579683920700000.    
_TOHZ2006=  6579683899900000.    
_TOHZ=  6579683920700000.    
_TOK2006=  315773.3000000000    
_TOK=  315774.7000000000    
_TOKCAL=  627.5096000000000    
_TOKELVIN2006=  315773.3000000000    
_TOKELVIN=  315774.7000000000    
_TOKJ=  2625.500000000000    
_TOKJOULE=  2625.500000000000    
_TOKG= 0.1660565586000000E-26
_ANG2006=  1.889725988578923    
_ANG=  1.889726131421507    
_ANGSTROM2006=  1.889725988578923    
_ANGSTROM=  1.889726131421507    
_RPAREF=  0.000000000000000    
_RPADISS=  0.000000000000000    
_IGNORE_UNDEF=  2.000000000000000    
_STRICTCHECK=  0.000000000000000    
_SEW_ONEEL=  0.000000000000000    
_CPPDONE=FALSE
_DKROLL_DONE=  0.000000000000000    
_FOCKDONE=TRUE
_GRADONE=FALSE
_HESSDONE=FALSE
_INTDONE=TRUE
_SCFDONE=TRUE
_MODUL_BLOCK=FALSE
_MODUL_CUDA=FALSE
_MODUL_SLATER=FALSE
_MODUL_MRCC=FALSE
_MODUL_NBO6=FALSE
_MODUL_NECI=TRUE
_MODUL_AIMS=TRUE
_MRCC_EXEC=
_FITC_AO_SAVED=FALSE
_FITC_MO_SAVED=FALSE
_SHARED_FS=TRUE
_LSTYP=SEWARD
_INTYP=INTS
_GEOMTYP=ZMAT
_GRADTYP=ALASKA
_DIRECT=FALSE
_DKHO= -1.000000000000000    
_SYNCM=  0.000000000000000    
_BASIS=$BSET
_ZORIENT=  1.000000000000000    
_NELEC=  2.000000000000000    
!SPIN=  0.000000000000000    
_QSDSTEP=  0.000000000000000    
_QSDIRC=  0.000000000000000    
_PROGRAM=HF
_CPUSTEP= 0.9999999999999995E-02
_SYSSTEP=  0.000000000000000    
_WALLSTEP= 0.2000000000000000E-01
!DFSCF=  0.000000000000000    
!SCSGRD=  0.000000000000000    
_BASINP=  610.0000000000000    
_CPUTOT= 0.1200000000000000    
_CPUSORT= 0.2000000000000000E-01
_SYSSORT= 0.2000000000000000E-01
_WALLSORT= 0.3999999910593033E-01
_DFTEXFAC=  1.000000000000000    
_DMX=  0.000000000000000    
_DMY=  0.000000000000000    
_DMZ=  0.000000000000000    
_DMX_SCF=  0.000000000000000    
_DMY_SCF=  0.000000000000000    
_DMZ_SCF=  0.000000000000000    
_EHOMO=-0.5966230692996218    
_ELUMO= 0.1681294104464747    
_ENERGY= -1.132989387066005    
_ENUC= 0.7211961436142112    
_GRADEXFAC=  9999.000000000000    
_GRADMETHOD=  1.000000000000000    
_NMRMETHOD=  0.000000000000000    
!GRID_FREEZE= -1.000000000000000    
_ITERATIONS=  6.000000000000000    
_LASTNELEC=  2.000000000000000    
_LASTSPIN=  0.000000000000000    
_LASTSYM=  1.000000000000000    
_MPP_PROG=  0.000000000000000    
_NPROC_MPP=  1.000000000000000    
_NPROC_MPPX=  1.000000000000000    
_NPROC_SMP=  1.000000000000000    
_NUMSTEP=  0.000000000000000    
_ORBITAL=  2100.200000000000    
_PI=  3.141592653589793    
_SEIG_MIN= 0.1689053103259523E-02
_SEWPROP=TRUE
_STATUS=  1.000000000000000    
_SYSTOT= 0.3000000000000000E-01
_VERSION=  2012001.000000000    
_WALLTOT= 0.1500000000000000    
_DATE=28-Aug-15
_LASTORB=RHF
_MACHINE=Linux-3.2.0-89-generic/sce-chem-c01105(x86_64) 64 bit serial version
_OUTPUT=/home/s1267651/phd_mini_24Aug2015/nikolaz/molpro2/AB.xml
_PGROUP=D2h
_TIME=16:04:03
_LIBMOL=/usr/local/molpro/molprop_2012_1_Linux_x86_64_i8/lib/
!VIBCNT=  0.000000000000000    
!RGHFCNT=  0.000000000000000    
!SURFREC=  0.000000000000000    
!POLYREC=  0.000000000000000    
!DIPREC=  0.000000000000000    
!VSCFREC=  0.000000000000000    
!VCIREC=  0.000000000000000    
!PVCIREC=  0.000000000000000    
!VMP2REC=  0.000000000000000    
!VMCSCFREC=  0.000000000000000    
!VMRCIREC=  0.000000000000000    
!VIBINFO=  0.000000000000000    
!GAREC=  0.000000000000000    
!SCFORB=  21002.00000000000    
!NEWMOL= -1.000000000000000    
!NEWSYM= -1.000000000000000    
_SLFILES=slscratch
_NGSSTO=  9.000000000000000    
_SIN=SIN
_COS=COS
_TAN=TAN
_ACOS=ACOS
_ASIN=ASIN
_ATAN=ATAN
_COSH=COSH
_SINH=SINH
_TANH=TANH
_ABS=ABS
_MOD=MOD
_ERF=ERF
_REFC=REFC
_ERFC=ERFC
_HYPOT=HYPOT
_J0=J0
_J1=J1
_JN=JN
_GAMMA=GAMMA
_LGAMMA=LGAMMA
_Y0=Y0
_Y1=Y1
_YN=YN
_EXP=EXP
_LOG=LOG
_LOG10=LOG10
_SQRT=SQRT
_INT=INT
_NINT=NINT
_MAX=MAX
_MIN=MIN
_COSMO=  0.000000000000000    
_COSMOIT=  0.000000000000000    
_COSMOES=  0.000000000000000    
_COSMOEDS=  0.000000000000000    
_COSMOEC=  0.000000000000000    
_COSMOEDCORR=  0.000000000000000    
_FEPSI=  1.000000000000000    
_SL_IsMM=  0.000000000000000    
_SL_NSYM=  8.000000000000000    
_SL_System_BitSw=  0.000000000000000    
_SL_Unique_atoms=  0.000000000000000    
_SL_GRAD=  0.000000000000000    
_SL_MAXUPD_Hess=  5.000000000000000    
_SL_N_PRINT_COD=  5.000000000000000    
_SL_PRINT_CODES=  0.000000000000000    
_SL_BasType=  0.000000000000000    
_SL_Energy_Pred=  0.000000000000000    
_SL_New_Coords=  0.000000000000000    
_SL_Total_Nuclea=  0.000000000000000    
_SL_Highest_Mltp=  0.000000000000000    
_SL_Ref_Geom=  0.000000000000000    
_SL_Symmetry_ope=  1.000000000000000    
_SL_agrad=  0.000000000000000    
_SL_GrdMax=  0.000000000000000    
_SL_GrdNorm=  0.000000000000000    
_SL_GrdRMS=  0.000000000000000    
_SL_Hss_Q=  0.000000000000000    
_SL_Hss_X=  0.000000000000000    
_SL_BMxOld=  0.000000000000000    
_SL_KtB=  0.000000000000000    
!LATTICE= -1.000000000000000    
!NEWLATTICE=  0.000000000000000    
!LATGRAD_VAR=FALSE
!SEW_LATTICE=  1.000000000000000    
!LOCAL=  0.000000000000000    
!SAVEDOM= -1.000000000000000    
!RESTDOM= -1.000000000000000    
!SAVEDOM_HF= -1.000000000000000    
!RESTDOM_HF= -1.000000000000000    
!HESSREC=  0.000000000000000    
!FREQREC=  0.000000000000000    
!NMODREC=  0.000000000000000    
!GTASKS=  0.000000000000000    
!HTASKS=  0.000000000000000    
!THRCHG= 0.1000000000000000    
!DEBUG= -1.000000000000000    
!CFIT_CPHF=  0.000000000000000    
!RDOMAUX_CPHF=  3.000000000000000    
!THRAO_CPHF= 0.1000000000000000E-09
!THRMO_CPHF= 0.1000000000000000E-08
!THROV_CPHF= 0.1000000000000000E-11
!THRSW_CPHF= 0.1000000000000000E-09
!THRPROD_CPHF= 0.1000000000000000E-08
!THRAOPR_CPHF= 0.1000000000000000E-11
!CFIT_SCFGRD=  0.000000000000000    
!RDOMAUX_SCFGRD=  5.000000000000000    
!THRAO_SCFGRD= 0.1000000000000000E-09
!THRMO_SCFGRD= 0.1000000000000000E-08
!THROV_SCFGRD= 0.1000000000000000E-11
!THRSW_SCFGRD= 0.1000000000000000E-09
!THRPROD_SCFGRD= 0.1000000000000000E-08
!THRAOPR_SCFGRD= 0.1000000000000000E-11
!LOCFIT_SCF=  0.000000000000000    
!LOCFIT_MP2= -1.000000000000000    
_RIDOM=  0.000000000000000    
!CC2_METHOD=  0.000000000000000    
_BASIS2006=FALSE
_SVDDEL= -1.000000000000000    
_SVDDELA= -1.000000000000000    
_SVDDELP= -1.000000000000000    
_SVDDELF= -1.000000000000000    
_SVDDELS= -1.000000000000000    
_SVDDEL_ABS= -1.000000000000000    
_SVDDELA_ABS= -1.000000000000000    
_SVDDELP_ABS= -1.000000000000000    
_SVDDELF_ABS= -1.000000000000000    
_SVDDELS_ABS= -1.000000000000000    
_MAXBASIS=  0.000000000000000    
!OPT_CONICAL=  0.000000000000000    
!CLEARSP_JGRID=  0.000000000000000    
_4EXT_NDISKS=  1.000000000000000    
!ZMP=  0.000000000000000    
_MAXIT_ZMP=  500.0000000000000    
_MAXDIS_ZMP=  100.0000000000000    
_ACCU_ZMP=  14.00000000000000    
_SHIFTA_ZMP= -100.0000000000000    
!EMBEDFLAG=  1.000000000000000    
!EMBED=FALSE
!EMBED_F12=FALSE
!EMBEDNUC=  0.000000000000000    
_EMBEDENERGY=  0.000000000000000    
_KSPACETIME=  0.000000000000000    
_RSPACETIME=  0.000000000000000    
!EMBED_DFC=FALSE
!NUM_VOIDS=  0.000000000000000    
_IBODY=  0.000000000000000    
_EMBE_TOTAL=  0.000000000000000    
_EMBE_HF=  0.000000000000000    
_EMBE_CORR=  0.000000000000000    
!EDFT=  0.000000000000000    
_IFASTLATGRAD=  0.000000000000000    
_SINDEX=  0.000000000000000    
A=H
B=H
BSET=VTZ
R=  1.386585340000000    
METH=HF
GX1=  0.000000000000000    
GY1=  0.000000000000000    
GZ1=-0.6932926700000001    
GX2=  0.000000000000000    
GY2=  0.000000000000000    
GZ2= 0.6932926700000001    
STR=../input/HH_VTZ_HF.mld
[Atoms] Angs
H     1    1         0.0000000000        0.0000000000       -0.3668746801
H     2    1         0.0000000000        0.0000000000        0.3668746801
[GTO]
  1 0
 s    5  1.00
  0.3387000000D+02  0.6067999217D-02
  0.5095000000D+01  0.4530799416D-01
  0.1159000000D+01  0.2028219738D+00
  0.3258000000D+00  0.5039029350D+00
  0.1027000000D+00  0.3834209505D+00
 s    5  1.00
  0.3387000000D+02  0.0000000000D+00
  0.5095000000D+01  0.0000000000D+00
  0.1159000000D+01  0.0000000000D+00
  0.3258000000D+00  0.1000000000D+01
  0.1027000000D+00  0.0000000000D+00
 s    5  1.00
  0.3387000000D+02  0.0000000000D+00
  0.5095000000D+01  0.0000000000D+00
  0.1159000000D+01  0.0000000000D+00
  0.3258000000D+00  0.0000000000D+00
  0.1027000000D+00  0.1000000000D+01
 p    1  1.00
  0.1407000000D+01  0.1000000000D+01
 p    1  1.00
  0.3880000000D+00  0.1000000000D+01
 d    1  1.00
  0.1057000000D+01  0.1000000000D+01
  
  2 0
 s    5  1.00
  0.3387000000D+02  0.6067999217D-02
  0.5095000000D+01  0.4530799416D-01
  0.1159000000D+01  0.2028219738D+00
  0.3258000000D+00  0.5039029350D+00
  0.1027000000D+00  0.3834209505D+00
 s    5  1.00
  0.3387000000D+02  0.0000000000D+00
  0.5095000000D+01  0.0000000000D+00
  0.1159000000D+01  0.0000000000D+00
  0.3258000000D+00  0.1000000000D+01
  0.1027000000D+00  0.0000000000D+00
 s    5  1.00
  0.3387000000D+02  0.0000000000D+00
  0.5095000000D+01  0.0000000000D+00
  0.1159000000D+01  0.0000000000D+00
  0.3258000000D+00  0.0000000000D+00
  0.1027000000D+00  0.1000000000D+01
 p    1  1.00
  0.1407000000D+01  0.1000000000D+01
 p    1  1.00
  0.3880000000D+00  0.1000000000D+01
 d    1  1.00
  0.1057000000D+01  0.1000000000D+01
 
 
[MO]
 Sym=      1.1
 Ene=      -0.5966
 Spin= Alpha
 Occup=    2.000000
1 0.78718436411223
2 -0.11320847483802
3 -0.16755387764390
4 0.0
5 0.0
6 0.012123217351302
7 0.0
8 0.0
9 0.017228938646131
10 -0.000397260163696
11 -0.000397260163696
12 0.000794520327392
13 0.0
14 0.0
15 0.0
16 0.78718436411223
17 -0.11320847483802
18 -0.16755387764390
19 0.0
20 0.0
21 -0.012123217351302
22 0.0
23 0.0
24 -0.017228938646131
25 -0.000397260163696
26 -0.000397260163696
27 0.000794520327392
28 0.0
29 0.0
30 0.0
 Sym=      1.5
 Ene=       0.1681
 Spin= Alpha
 Occup=    0.000000
1 0.27371070394384
2 -0.47095821888543
3 2.24715945002972
4 0.0
5 0.0
6 -0.035644151625570
7 0.0
8 0.0
9 -0.10949851211843
10 0.009812492984009
11 0.009812492984009
12 -0.019624985968018
13 0.0
14 0.0
15 0.0
16 -0.27371070394384
17 0.47095821888543
18 -2.24715945002972
19 0.0
20 0.0
21 -0.035644151625570
22 0.0
23 0.0
24 -0.10949851211843
25 -0.009812492984009
26 -0.009812492984009
27 0.019624985968018
28 0.0
29 0.0
30 0.0
 Sym=      2.1
 Ene=       0.3044
 Spin= Alpha
 Occup=    0.000000
1 -0.23669991764496
2 -0.61312924821764
3 0.95076366424273
4 0.0
5 0.0
6 -0.016857058953017
7 0.0
8 0.0
9 0.052041792853705
10 -0.003964467017385
11 -0.003964467017385
12 0.007928934034770
13 0.0
14 0.0
15 0.0
16 -0.23669991764496
17 -0.61312924821764
18 0.95076366424273
19 0.0
20 0.0
21 0.016857058953017
22 0.0
23 0.0
24 -0.052041792853705
25 -0.003964467017385
26 -0.003964467017385
27 0.007928934034770
28 0.0
29 0.0
30 0.0
 Sym=      2.5
 Ene=       0.6463
 Spin= Alpha
 Occup=    0.000000
1 -0.53359925598312
2 -2.07640689743752
3 2.47423598133747
4 0.0
5 0.0
6 -0.087260135545845
7 0.0
8 0.0
9 -0.22981753575766
10 0.036090926190705
11 0.036090926190705
12 -0.072181852381409
13 0.0
14 0.0
15 0.0
16 0.53359925598312
17 2.07640689743752
18 -2.47423598133747
19 0.0
20 0.0
21 -0.087260135545845
22 0.0
23 0.0
24 -0.22981753575766
25 -0.036090926190705
26 -0.036090926190705
27 0.072181852381409
28 0.0
29 0.0
30 0.0
 Sym=      1.2
 Ene=       0.6934
 Spin= Alpha
 Occup=    0.000000
1 0.0
2 0.0
3 0.0
4 -0.058575247322464
5 0.0
6 0.0
7 0.57749500824739
8 0.0
9 0.0
10 0.0
11 0.0
12 0.0
13 0.0
14 -0.008769135577319
15 0.0
16 0.0
17 0.0
18 0.0
19 -0.058575247322464
20 0.0
21 0.0
22 0.57749500824739
23 0.0
24 0.0
25 0.0
26 0.0
27 0.0
28 0.0
29 0.008769135577319
30 0.0
 Sym=      1.3
 Ene=       0.6934
 Spin= Alpha
 Occup=    0.000000
1 0.0
2 0.0
3 0.0
4 0.0
5 -0.058575247322464
6 0.0
7 0.0
8 0.57749500824739
9 0.0
10 0.0
11 0.0
12 0.0
13 0.0
14 0.0
15 -0.008769135577319
16 0.0
17 0.0
18 0.0
19 0.0
20 -0.058575247322464
21 0.0
22 0.0
23 0.57749500824739
24 0.0
25 0.0
26 0.0
27 0.0
28 0.0
29 0.0
30 0.008769135577319
 Sym=      3.1
 Ene=       1.0983
 Spin= Alpha
 Occup=    0.000000
1 -0.034608328530088
2 -0.65125381972267
3 0.37048961979113
4 0.0
5 0.0
6 -0.10248839702932
7 0.0
8 0.0
9 1.07103597730370
10 -0.034766110558567
11 -0.034766110558567
12 0.069532221117134
13 0.0
14 0.0
15 0.0
16 -0.034608328530088
17 -0.65125381972267
18 0.37048961979113
19 0.0
20 0.0
21 0.10248839702932
22 0.0
23 0.0
24 -1.07103597730370
25 -0.034766110558567
26 -0.034766110558567
27 0.069532221117134
28 0.0
29 0.0
30 0.0
 Sym=      1.6
 Ene=       1.1211
 Spin= Alpha
 Occup=    0.000000
1 0.0
2 0.0
3 0.0
4 -0.065061169832504
5 0.0
6 0.0
7 1.43082258856315
8 0.0
9 0.0
10 0.0
11 0.0
12 0.0
13 0.0
14 0.11166540592230
15 0.0
16 0.0
17 0.0
18 0.0
19 0.065061169832504
20 0.0
21 0.0
22 -1.43082258856315
23 0.0
24 0.0
25 0.0
26 0.0
27 0.0
28 0.0
29 0.11166540592230
30 0.0
 Sym=      1.7
 Ene=       1.1211
 Spin= Alpha
 Occup=    0.000000
1 0.0
2 0.0
3 0.0
4 0.0
5 -0.065061169832504
6 0.0
7 0.0
8 1.43082258856315
9 0.0
10 0.0
11 0.0
12 0.0
13 0.0
14 0.0
15 0.11166540592230
16 0.0
17 0.0
18 0.0
19 0.0
20 0.065061169832504
21 0.0
22 0.0
23 -1.43082258856315
24 0.0
25 0.0
26 0.0
27 0.0
28 0.0
29 0.0
30 0.11166540592230
 Sym=      3.5
 Ene=       1.5314
 Spin= Alpha
 Occup=    0.000000
1 0.15458291628829
2 13.3605074778933
3 -0.42874732958842
4 0.0
5 0.0
6 0.12800872744006
7 0.0
8 0.0
9 6.29582499978515
10 -0.14230497428308
11 -0.14230497428308
12 0.28460994856616
13 0.0
14 0.0
15 0.0
16 -0.15458291628829
17 -13.3605074778933
18 0.42874732958842
19 0.0
20 0.0
21 0.12800872744006
22 0.0
23 0.0
24 6.29582499978515
25 0.14230497428308
26 0.14230497428308
27 -0.28460994856616
28 0.0
29 0.0
30 0.0
 Sym=      4.5
 Ene=       2.3374
 Spin= Alpha
 Occup=    0.000000
1 -2.57746004657988
2 4.51695442452314
3 -0.33364346444546
4 0.0
5 0.0
6 0.56772980712921
7 0.0
8 0.0
9 0.58070512600398
10 -0.20904355209402
11 -0.20904355209402
12 0.41808710418804
13 0.0
14 0.0
15 0.0
16 2.57746004657988
17 -4.51695442452314
18 0.33364346444546
19 0.0
20 0.0
21 0.56772980712921
22 0.0
23 0.0
24 0.58070512600398
25 0.20904355209402
26 0.20904355209402
27 -0.41808710418804
28 0.0
29 0.0
30 0.0
 Sym=      4.1
 Ene=       2.4036
 Spin= Alpha
 Occup=    0.000000
1 4.02163496250848
2 -3.01594881365977
3 -1.15704063528932
4 0.0
5 0.0
6 0.10579734400748
7 0.0
8 0.0
9 -0.24834963871680
10 -0.054017600685516
11 -0.054017600685516
12 0.10803520137103
13 0.0
14 0.0
15 0.0
16 4.02163496250848
17 -3.01594881365977
18 -1.15704063528932
19 0.0
20 0.0
21 -0.10579734400748
22 0.0
23 0.0
24 0.24834963871680
25 -0.054017600685516
26 -0.054017600685516
27 0.10803520137103
28 0.0
29 0.0
30 0.0
 Sym=      1.4
 Ene=       3.1763
 Spin= Alpha
 Occup=    0.000000
1 0.0
2 0.0
3 0.0
4 0.0
5 0.0
6 0.0
7 0.0
8 0.0
9 0.0
10 0.0
11 0.0
12 0.0
13 0.60589315448977
14 0.0
15 0.0
16 0.0
17 0.0
18 0.0
19 0.0
20 0.0
21 0.0
22 0.0
23 0.0
24 0.0
25 0.0
26 0.0
27 0.0
28 0.60589315448977
29 0.0
30 0.0
 Sym=      5.1
 Ene=       3.1763
 Spin= Alpha
 Occup=    0.000000
1 -0.000000000000001
2 0.000000000000001
3 0.000000000000000
4 0.0
5 0.0
6 0.000000000000000
7 0.0
8 0.0
9 -0.000000000000000
10 0.52471886376723
11 -0.52471886376723
12 0.000000000000000
13 0.0
14 0.0
15 0.0
16 -0.000000000000001
17 0.000000000000001
18 0.000000000000000
19 0.0
20 0.0
21 -0.000000000000000
22 0.0
23 0.0
24 0.000000000000000
25 0.52471886376723
26 -0.52471886376723
27 0.000000000000000
28 0.0
29 0.0
30 0.0
 Sym=      2.2
 Ene=       3.4164
 Spin= Alpha
 Occup=    0.000000
1 0.0
2 0.0
3 0.0
4 0.59378297670733
5 0.0
6 0.0
7 -0.35859983194633
8 0.0
9 0.0
10 0.0
11 0.0
12 0.0
13 0.0
14 0.31392722186480
15 0.0
16 0.0
17 0.0
18 0.0
19 0.59378297670733
20 0.0
21 0.0
22 -0.35859983194633
23 0.0
24 0.0
25 0.0
26 0.0
27 0.0
28 0.0
29 -0.31392722186480
30 0.0
 Sym=      2.3
 Ene=       3.4164
 Spin= Alpha
 Occup=    0.000000
1 0.0
2 0.0
3 0.0
4 0.0
5 0.59378297670733
6 0.0
7 0.0
8 -0.35859983194633
9 0.0
10 0.0
11 0.0
12 0.0
13 0.0
14 0.0
15 0.31392722186480
16 0.0
17 0.0
18 0.0
19 0.0
20 0.59378297670733
21 0.0
22 0.0
23 -0.35859983194633
24 0.0
25 0.0
26 0.0
27 0.0
28 0.0
29 0.0
30 -0.31392722186480
 Sym=      6.1
 Ene=       3.6773
 Spin= Alpha
 Occup=    0.000000
1 0.41936260881911
2 0.049031692886617
3 -0.31465114768290
4 0.0
5 0.0
6 0.81740787187329
7 0.0
8 0.0
9 -0.88488181351165
10 0.22358458092962
11 0.22358458092962
12 -0.44716916185924
13 0.0
14 0.0
15 0.0
16 0.41936260881911
17 0.049031692886617
18 -0.31465114768290
19 0.0
20 0.0
21 -0.81740787187329
22 0.0
23 0.0
24 0.88488181351165
25 0.22358458092962
26 0.22358458092962
27 -0.44716916185924
28 0.0
29 0.0
30 0.0
 Sym=      2.6
 Ene=       3.8874
 Spin= Alpha
 Occup=    0.000000
1 0.0
2 0.0
3 0.0
4 0.48188235124970
5 0.0
6 0.0
7 -1.14934021209026
8 0.0
9 0.0
10 0.0
11 0.0
12 0.0
13 0.0
14 -0.84915063305857
15 0.0
16 0.0
17 0.0
18 0.0
19 -0.48188235124970
20 0.0
21 0.0
22 1.14934021209026
23 0.0
24 0.0
25 0.0
26 0.0
27 0.0
28 0.0
29 -0.84915063305857
30 0.0
 Sym=      2.7
 Ene=       3.8874
 Spin= Alpha
 Occup=    0.000000
1 0.0
2 0.0
3 0.0
4 0.0
5 0.48188235124970
6 0.0
7 0.0
8 -1.14934021209026
9 0.0
10 0.0
11 0.0
12 0.0
13 0.0
14 0.0
15 -0.84915063305857
16 0.0
17 0.0
18 0.0
19 0.0
20 -0.48188235124970
21 0.0
22 0.0
23 1.14934021209026
24 0.0
25 0.0
26 0.0
27 0.0
28 0.0
29 0.0
30 -0.84915063305857
 Sym=      1.8
 Ene=       4.0920
 Spin= Alpha
 Occup=    0.000000
1 0.0
2 0.0
3 0.0
4 0.0
5 0.0
6 0.0
7 0.0
8 0.0
9 0.0
10 0.0
11 0.0
12 0.0
13 0.88526954172898
14 0.0
15 0.0
16 0.0
17 0.0
18 0.0
19 0.0
20 0.0
21 0.0
22 0.0
23 0.0
24 0.0
25 0.0
26 0.0
27 0.0
28 -0.88526954172898
29 0.0
30 0.0
 Sym=      5.5
 Ene=       4.0920
 Spin= Alpha
 Occup=    0.000000
1 -0.000000000000002
2 0.000000000000004
3 0.000000000000001
4 0.0
5 0.0
6 0.000000000000000
7 0.0
8 0.0
9 0.000000000000001
10 0.76666591233391
11 -0.76666591233391
12 -0.000000000000001
13 0.0
14 0.0
15 0.0
16 0.000000000000002
17 -0.000000000000004
18 -0.000000000000001
19 0.0
20 0.0
21 0.000000000000000
22 0.0
23 0.0
24 0.000000000000001
25 -0.76666591233391
26 0.76666591233391
27 0.000000000000001
28 0.0
29 0.0
30 0.0
 Sym=      3.2
 Ene=       4.1209
 Spin= Alpha
 Occup=    0.000000
1 0.0
2 0.0
3 0.0
4 -0.65060942849859
5 0.0
6 0.0
7 0.24466377580045
8 0.0
9 0.0
10 0.0
11 0.0
12 0.0
13 0.0
14 0.57190724460714
15 0.0
16 0.0
17 0.0
18 0.0
19 -0.65060942849859
20 0.0
21 0.0
22 0.24466377580045
23 0.0
24 0.0
25 0.0
26 0.0
27 0.0
28 0.0
29 -0.57190724460714
30 0.0
 Sym=      3.3
 Ene=       4.1209
 Spin= Alpha
 Occup=    0.000000
1 0.0
2 0.0
3 0.0
4 0.0
5 -0.65060942849859
6 0.0
7 0.0
8 0.24466377580045
9 0.0
10 0.0
11 0.0
12 0.0
13 0.0
14 0.0
15 0.57190724460714
16 0.0
17 0.0
18 0.0
19 0.0
20 -0.65060942849859
21 0.0
22 0.0
23 0.24466377580045
24 0.0
25 0.0
26 0.0
27 0.0
28 0.0
29 0.0
30 -0.57190724460714
 Sym=      6.5
 Ene=       4.6807
 Spin= Alpha
 Occup=    0.000000
1 2.97864380458286
2 5.74859501746740
3 -1.04124827191017
4 0.0
5 0.0
6 -0.20289033164052
7 0.0
8 0.0
9 3.76357531810896
10 -0.47635503802896
11 -0.47635503802896
12 0.95271007605792
13 0.0
14 0.0
15 0.0
16 -2.97864380458286
17 -5.74859501746740
18 1.04124827191017
19 0.0
20 0.0
21 -0.20289033164052
22 0.0
23 0.0
24 3.76357531810896
25 0.47635503802896
26 0.47635503802896
27 -0.95271007605792
28 0.0
29 0.0
30 0.0
 Sym=      3.6
 Ene=       5.7577
 Spin= Alpha
 Occup=    0.000000
1 0.0
2 0.0
3 0.0
4 1.10020286510903
5 0.0
6 0.0
7 0.47743605650947
8 0.0
9 0.0
10 0.0
11 0.0
12 0.0
13 0.0
14 1.36479835793712
15 0.0
16 0.0
17 0.0
18 0.0
19 -1.10020286510903
20 0.0
21 0.0
22 -0.47743605650947
23 0.0
24 0.0
25 0.0
26 0.0
27 0.0
28 0.0
29 1.36479835793712
30 0.0
 Sym=      3.7
 Ene=       5.7577
 Spin= Alpha
 Occup=    0.000000
1 0.0
2 0.0
3 0.0
4 0.0
5 1.10020286510903
6 0.0
7 0.0
8 0.47743605650947
9 0.0
10 0.0
11 0.0
12 0.0
13 0.0
14 0.0
15 1.36479835793712
16 0.0
17 0.0
18 0.0
19 0.0
20 -1.10020286510903
21 0.0
22 0.0
23 -0.47743605650947
24 0.0
25 0.0
26 0.0
27 0.0
28 0.0
29 0.0
30 1.36479835793712
 Sym=      7.1
 Ene=       5.8360
 Spin= Alpha
 Occup=    0.000000
1 -5.16254504786368
2 3.18742141173464
3 1.88333373418050
4 0.0
5 0.0
6 -0.003792441801608
7 0.0
8 0.0
9 0.71573410230420
10 -0.56214048969926
11 -0.56214048969926
12 1.12428097939852
13 0.0
14 0.0
15 0.0
16 -5.16254504786368
17 3.18742141173464
18 1.88333373418050
19 0.0
20 0.0
21 0.003792441801608
22 0.0
23 0.0
24 -0.71573410230420
25 -0.56214048969926
26 -0.56214048969926
27 1.12428097939852
28 0.0
29 0.0
30 0.0
 Sym=      7.5
 Ene=       7.0051
 Spin= Alpha
 Occup=    0.000000
1 6.76167993179257
2 0.93729360316019
3 -3.19895455396022
4 0.0
5 0.0
6 1.98416479043202
7 0.0
8 0.0
9 1.65962990271837
10 -0.50550868468670
11 -0.50550868468670
12 1.01101736937340
13 0.0
14 0.0
15 0.0
16 -6.76167993179257
17 -0.93729360316019
18 3.19895455396022
19 0.0
20 0.0
21 1.98416479043202
22 0.0
23 0.0
24 1.65962990271837
25 0.50550868468670
26 0.50550868468670
27 -1.01101736937340
28 0.0
29 0.0
30 0.0
