[Molden Format]
[Molpro variables]
_NUMVAR=  839.0000000000000    
_AVOGAD= 0.6022136736000000E+24
_BOLTZ= 0.1380658000000000E-22
_CLIGHT=  29979245800.00000    
_EV2006= 0.3674930886769165E-01
_EV= 0.3674932534394180E-01
_ENULL= 0.8854187817000000E-11
_KJOULE= 0.3808798324128737E-03
_KJOULE/MOL= 0.3808798324128737E-03
_CM= 0.4556335267302901E-05
_CM-1= 0.4556335267302901E-05
_DEB2SI= 0.3335641000000000E-29
_AMU2AU=  1822.888390000000    
_KCAL= 0.1593601117815568E-02
_KCAL/MOL= 0.1593601117815568E-02
_KELVIN2006= 0.3166828861084835E-05
_KELVIN= 0.3166814820820034E-05
_JOULE= 0.4359748200000000E-17
_HERTZ2006= 0.1519829850815779E-15
_HERTZ= 0.1519829846011223E-15
_HZ2006= 0.1519829850815779E-15
_HZ= 0.1519829846011223E-15
_JPCAL=  4.184000000000000    
_PLANCK= 0.6626075540000000E-33
_TOA2006= 0.5291772490000000    
_TOA= 0.5291772090000000    
_TOANG2006= 0.5291772490000000    
_TOANG= 0.5291772090000000    
_TORAD= 0.1745329251994330E-01
_TOCM=  219474.6306700000    
_TODEBYE=  2.541580000000000    
_TOEV2006=  27.21139610000000    
_TOE= 0.4803242000000000E-09
_TOEV=  27.21138390000000    
_TOHERTZ2006=  6579683899900000.    
_TOHERTZ=  6579683920700000.    
_TOHZ2006=  6579683899900000.    
_TOHZ=  6579683920700000.    
_TOK2006=  315773.3000000000    
_TOK=  315774.7000000000    
_TOKCAL=  627.5096000000000    
_TOKELVIN2006=  315773.3000000000    
_TOKELVIN=  315774.7000000000    
_TOKJ=  2625.500000000000    
_TOKJOULE=  2625.500000000000    
_TOKG= 0.1660565586000000E-26
_ANG2006=  1.889725988578923    
_ANG=  1.889726131421507    
_ANGSTROM2006=  1.889725988578923    
_ANGSTROM=  1.889726131421507    
_RPAREF=  0.000000000000000    
_RPADISS=  0.000000000000000    
_IGNORE_UNDEF=  2.000000000000000    
_STRICTCHECK=  0.000000000000000    
_SEW_ONEEL=  0.000000000000000    
_CPPDONE=FALSE
_DKROLL_DONE=  0.000000000000000    
_FOCKDONE=TRUE
_GRADONE=FALSE
_HESSDONE=FALSE
_INTDONE=TRUE
_SCFDONE=TRUE
_MODUL_BLOCK=FALSE
_MODUL_CUDA=FALSE
_MODUL_SLATER=FALSE
_MODUL_MRCC=FALSE
_MODUL_NBO6=FALSE
_MODUL_NECI=TRUE
_MODUL_AIMS=TRUE
_MRCC_EXEC=
_FITC_AO_SAVED=FALSE
_FITC_MO_SAVED=FALSE
_SHARED_FS=TRUE
_LSTYP=SEWARD
_INTYP=INTS
_GEOMTYP=ZMAT
_GRADTYP=ALASKA
_DIRECT=FALSE
_DKHO= -1.000000000000000    
_SYNCM=  0.000000000000000    
_BASIS=$BSET
_ZORIENT=  1.000000000000000    
_NELEC=  82.00000000000000    
!SPIN=  0.000000000000000    
_QSDSTEP=  0.000000000000000    
_QSDIRC=  0.000000000000000    
_PROGRAM=HF-SCF
_CPUSTEP=  2.109999999999999    
_SYSSTEP= 0.1100000000000000    
_WALLSTEP=  2.230000000000000    
!DFSCF=  0.000000000000000    
!SCSGRD=  0.000000000000000    
_BASINP=  610.0000000000000    
_CPUTOT=  6.180000000000000    
_CPUSORT= 0.6799999999999997    
_SYSSORT= 0.2300000000000000    
_WALLSORT= 0.9100000001490116    
_DFTEXFAC=  1.000000000000000    
_DMX= -3.148437072380446    
_DMY=-0.5603854089228051    
_DMZ= -2.485233920896022    
_DMX_SCF= -3.148437072380446    
_DMY_SCF=-0.5603854089228051    
_DMZ_SCF= -2.485233920896022    
_EHOMO=-0.3266053326405020    
_ELUMO= 0.1162746261217855    
_ENERGY= -545.1961099839928    
_ENUC=  609.5104385216379    
_GRADEXFAC=  9999.000000000000    
_GRADMETHOD=  1.000000000000000    
_NMRMETHOD=  0.000000000000000    
!GRID_FREEZE= -1.000000000000000    
_ITERATIONS=  11.00000000000000    
_LASTNELEC=  82.00000000000000    
_LASTSPIN=  0.000000000000000    
_LASTSYM=  1.000000000000000    
_MPP_PROG=  0.000000000000000    
_NPROC_MPP=  1.000000000000000    
_NPROC_MPPX=  1.000000000000000    
_NPROC_SMP=  1.000000000000000    
_NUMSTEP=  0.000000000000000    
_ORBITAL=  2100.200000000000    
_PI=  3.141592653589793    
_SEIG_MIN= 0.1814308539630255E-02
_SEWPROP=TRUE
_STATUS=  1.000000000000000    
_SYSTOT= 0.3900000000000000    
_VERSION=  2012001.000000000    
_WALLTOT=  6.570000000000000    
_DATE=23-Sep-15
_LASTORB=RHF
_MACHINE=Linux-3.2.0-90-generic/sce-chem-c01105(x86_64) 64 bit serial version
_OUTPUT=/home/s1267651/phd_mini_19Sept2015/protein/molpro2/histidine_6-31g_scf.xml
_PGROUP=C1
_TIME=17:58:03
_LIBMOL=/usr/local/molpro/molprop_2012_1_Linux_x86_64_i8/lib/
!VIBCNT=  0.000000000000000    
!RGHFCNT=  0.000000000000000    
!SURFREC=  0.000000000000000    
!POLYREC=  0.000000000000000    
!DIPREC=  0.000000000000000    
!VSCFREC=  0.000000000000000    
!VCIREC=  0.000000000000000    
!PVCIREC=  0.000000000000000    
!VMP2REC=  0.000000000000000    
!VMCSCFREC=  0.000000000000000    
!VMRCIREC=  0.000000000000000    
!VIBINFO=  0.000000000000000    
!GAREC=  0.000000000000000    
!SCFORB=  21002.00000000000    
!NEWMOL= -1.000000000000000    
!NEWSYM= -1.000000000000000    
_SLFILES=slscratch
_NGSSTO=  9.000000000000000    
_SIN=SIN
_COS=COS
_TAN=TAN
_ACOS=ACOS
_ASIN=ASIN
_ATAN=ATAN
_COSH=COSH
_SINH=SINH
_TANH=TANH
_ABS=ABS
_MOD=MOD
_ERF=ERF
_REFC=REFC
_ERFC=ERFC
_HYPOT=HYPOT
_J0=J0
_J1=J1
_JN=JN
_GAMMA=GAMMA
_LGAMMA=LGAMMA
_Y0=Y0
_Y1=Y1
_YN=YN
_EXP=EXP
_LOG=LOG
_LOG10=LOG10
_SQRT=SQRT
_INT=INT
_NINT=NINT
_MAX=MAX
_MIN=MIN
_COSMO=  0.000000000000000    
_COSMOIT=  0.000000000000000    
_COSMOES=  0.000000000000000    
_COSMOEDS=  0.000000000000000    
_COSMOEC=  0.000000000000000    
_COSMOEDCORR=  0.000000000000000    
_FEPSI=  1.000000000000000    
_SL_IsMM=  0.000000000000000    
_SL_NSYM=  1.000000000000000    
_SL_System_BitSw=  0.000000000000000    
_SL_Unique_atoms=  0.000000000000000    
_SL_GRAD=  0.000000000000000    
_SL_MAXUPD_Hess=  5.000000000000000    
_SL_N_PRINT_COD=  5.000000000000000    
_SL_PRINT_CODES=  0.000000000000000    
_SL_BasType=  0.000000000000000    
_SL_Energy_Pred=  0.000000000000000    
_SL_New_Coords=  0.000000000000000    
_SL_Total_Nuclea=  0.000000000000000    
_SL_Highest_Mltp=  0.000000000000000    
_SL_Ref_Geom=  0.000000000000000    
_SL_Symmetry_ope=  1.000000000000000    
_SL_agrad=  0.000000000000000    
_SL_GrdMax=  0.000000000000000    
_SL_GrdNorm=  0.000000000000000    
_SL_GrdRMS=  0.000000000000000    
_SL_Hss_Q=  0.000000000000000    
_SL_Hss_X=  0.000000000000000    
_SL_BMxOld=  0.000000000000000    
_SL_KtB=  0.000000000000000    
!LATTICE= -1.000000000000000    
!NEWLATTICE=  0.000000000000000    
!LATGRAD_VAR=FALSE
!SEW_LATTICE=  1.000000000000000    
!LOCAL=  0.000000000000000    
!SAVEDOM= -1.000000000000000    
!RESTDOM= -1.000000000000000    
!SAVEDOM_HF= -1.000000000000000    
!RESTDOM_HF= -1.000000000000000    
!HESSREC=  0.000000000000000    
!FREQREC=  0.000000000000000    
!NMODREC=  0.000000000000000    
!GTASKS=  0.000000000000000    
!HTASKS=  0.000000000000000    
!THRCHG= 0.1000000000000000    
!DEBUG= -1.000000000000000    
!CFIT_CPHF=  0.000000000000000    
!RDOMAUX_CPHF=  3.000000000000000    
!THRAO_CPHF= 0.1000000000000000E-09
!THRMO_CPHF= 0.1000000000000000E-08
!THROV_CPHF= 0.1000000000000000E-11
!THRSW_CPHF= 0.1000000000000000E-09
!THRPROD_CPHF= 0.1000000000000000E-08
!THRAOPR_CPHF= 0.1000000000000000E-11
!CFIT_SCFGRD=  0.000000000000000    
!RDOMAUX_SCFGRD=  5.000000000000000    
!THRAO_SCFGRD= 0.1000000000000000E-09
!THRMO_SCFGRD= 0.1000000000000000E-08
!THROV_SCFGRD= 0.1000000000000000E-11
!THRSW_SCFGRD= 0.1000000000000000E-09
!THRPROD_SCFGRD= 0.1000000000000000E-08
!THRAOPR_SCFGRD= 0.1000000000000000E-11
!LOCFIT_SCF=  0.000000000000000    
!LOCFIT_MP2= -1.000000000000000    
_RIDOM=  0.000000000000000    
!CC2_METHOD=  0.000000000000000    
_BASIS2006=FALSE
_SVDDEL= -1.000000000000000    
_SVDDELA= -1.000000000000000    
_SVDDELP= -1.000000000000000    
_SVDDELF= -1.000000000000000    
_SVDDELS= -1.000000000000000    
_SVDDEL_ABS= -1.000000000000000    
_SVDDELA_ABS= -1.000000000000000    
_SVDDELP_ABS= -1.000000000000000    
_SVDDELF_ABS= -1.000000000000000    
_SVDDELS_ABS= -1.000000000000000    
_MAXBASIS=  0.000000000000000    
!OPT_CONICAL=  0.000000000000000    
!CLEARSP_JGRID=  0.000000000000000    
_4EXT_NDISKS=  1.000000000000000    
!ZMP=  0.000000000000000    
_MAXIT_ZMP=  500.0000000000000    
_MAXDIS_ZMP=  100.0000000000000    
_ACCU_ZMP=  14.00000000000000    
_SHIFTA_ZMP= -100.0000000000000    
!EMBEDFLAG=  1.000000000000000    
!EMBED=FALSE
!EMBED_F12=FALSE
!EMBEDNUC=  0.000000000000000    
_EMBEDENERGY=  0.000000000000000    
_KSPACETIME=  0.000000000000000    
_RSPACETIME=  0.000000000000000    
!EMBED_DFC=FALSE
!NUM_VOIDS=  0.000000000000000    
_IBODY=  0.000000000000000    
_EMBE_TOTAL=  0.000000000000000    
_EMBE_HF=  0.000000000000000    
_EMBE_CORR=  0.000000000000000    
!EDFT=  0.000000000000000    
_IFASTLATGRAD=  0.000000000000000    
_SINDEX=  0.000000000000000    
TITLE=HISTIDINE
BSET=6-31G
GX1=  1.295000000000000    
GY1=  1.036000000000000    
GZ1= 0.4830000000000000    
GX2= 0.7090000000000002    
GY2=-0.2040000000000000    
GZ2=  1.156000000000000    
GX3=-0.5460000000000000    
GY3=-0.6250000000000000    
GZ3= 0.4290000000000000    
GX4= -1.837000000000000    
GY4=-0.2080000000000000    
GZ4= 0.7000000000000000    
GX5= -2.668000000000000    
GY5=-0.8420000000000000    
GZ5=-0.2060000000000000    
GX6= -1.919000000000001    
GY6= -1.618000000000000    
GZ6= -1.001000000000000    
GX7=-0.6300000000000000    
GY7= -1.514000000000000    
GZ7=-0.6490000000000000    
GX8=  1.625000000000000    
GY8= 0.7210000000000000    
GZ8=-0.9410000000000002    
GX9=  2.550000000000000    
GY9=  1.457000000000000    
GZ9=  1.209000000000000    
GX10=  2.619000000000000    
GY10=  2.565000000000000    
GZ10=  1.717000000000000    
GX11=  3.534000000000000    
GY11= 0.6590000000000000    
GZ11=  1.292000000000000    
GX12= -3.740000000000000    
GY12=-0.7300000000000003    
GZ12=-0.2630000000000000    
GX13= 0.1990000000000000    
GY13= -2.027000000000000    
GZ13= -1.115000000000000    
GX14= -2.119000000000000    
GY14= 0.4390000000000000    
GZ14=  1.422000000000000    
GX15=  1.436000000000000    
GY15= -1.013000000000000    
GZ15=  1.123000000000000    
GX16= 0.4680000000000001    
GY16= 0.2500000000000000E-01
GZ16=  2.192000000000000    
GX17= 0.5679999999999999    
GY17=  1.845000000000000    
GZ17= 0.5160000000000000    
GX18=  2.022000000000000    
GY18=  1.561000000000000    
GZ18= -1.397000000000000    
GX19= 0.7650000000000000    
GY19= 0.4330000000000000    
GZ19= -1.439000000000000    
GX20=  2.317000000000001    
GY20=-0.4800000000000000E-01
GZ20=-0.9730000000000000    
STR=../input/HISTIDINE_6-31G_scf.mld
[Atoms] Angs
C     1    6         1.2950000000        1.0360000000        0.4830000000
C     2    6         0.7090000000       -0.2040000000        1.1560000000
C     3    6        -0.5460000000       -0.6250000000        0.4290000000
N     4    7        -1.8370000000       -0.2080000000        0.7000000000
C     5    6        -2.6680000000       -0.8420000000       -0.2060000000
N     6    7        -1.9190000000       -1.6180000000       -1.0010000000
C     7    6        -0.6300000000       -1.5140000000       -0.6490000000
N     8    7         1.6250000000        0.7210000000       -0.9410000000
C     9    6         2.5500000000        1.4570000000        1.2090000000
O    10    8         2.6190000000        2.5650000000        1.7170000000
O    11    8         3.5340000000        0.6590000000        1.2920000000
H    12    1        -3.7400000000       -0.7300000000       -0.2630000000
H    13    1         0.1990000000       -2.0270000000       -1.1150000000
H    14    1        -2.1190000000        0.4390000000        1.4220000000
H    15    1         1.4360000000       -1.0130000000        1.1230000000
H    16    1         0.4680000000        0.0250000000        2.1920000000
H    17    1         0.5680000000        1.8450000000        0.5160000000
H    18    1         2.0220000000        1.5610000000       -1.3970000000
H    19    1         0.7650000000        0.4330000000       -1.4390000000
H    20    1         2.3170000000       -0.0480000000       -0.9730000000
[GTO]
  1 0
 s    6  1.00
  0.3047524900D+04  0.1834737091D-02
  0.4573695200D+03  0.1403732293D-01
  0.1039486800D+03  0.6884262165D-01
  0.2921015500D+02  0.2321844388D+00
  0.9286663000D+01  0.4679413476D+00
  0.3163927000D+01  0.3623119882D+00
 s    3  1.00
  0.7868272300D+01 -0.1193324245D+00
  0.1881288500D+01 -0.1608541561D+00
  0.5442492600D+00  0.1143456443D+01
 s    1  1.00
  0.1687144800D+00  0.1000000000D+01
 p    3  1.00
  0.7868272300D+01  0.6899906693D-01
  0.1881288500D+01  0.3164239597D+00
  0.5442492600D+00  0.7443082892D+00
 p    1  1.00
  0.1687144800D+00  0.1000000000D+01
  
  2 0
 s    6  1.00
  0.3047524900D+04  0.1834737091D-02
  0.4573695200D+03  0.1403732293D-01
  0.1039486800D+03  0.6884262165D-01
  0.2921015500D+02  0.2321844388D+00
  0.9286663000D+01  0.4679413476D+00
  0.3163927000D+01  0.3623119882D+00
 s    3  1.00
  0.7868272300D+01 -0.1193324245D+00
  0.1881288500D+01 -0.1608541561D+00
  0.5442492600D+00  0.1143456443D+01
 s    1  1.00
  0.1687144800D+00  0.1000000000D+01
 p    3  1.00
  0.7868272300D+01  0.6899906693D-01
  0.1881288500D+01  0.3164239597D+00
  0.5442492600D+00  0.7443082892D+00
 p    1  1.00
  0.1687144800D+00  0.1000000000D+01
  
  3 0
 s    6  1.00
  0.3047524900D+04  0.1834737091D-02
  0.4573695200D+03  0.1403732293D-01
  0.1039486800D+03  0.6884262165D-01
  0.2921015500D+02  0.2321844388D+00
  0.9286663000D+01  0.4679413476D+00
  0.3163927000D+01  0.3623119882D+00
 s    3  1.00
  0.7868272300D+01 -0.1193324245D+00
  0.1881288500D+01 -0.1608541561D+00
  0.5442492600D+00  0.1143456443D+01
 s    1  1.00
  0.1687144800D+00  0.1000000000D+01
 p    3  1.00
  0.7868272300D+01  0.6899906693D-01
  0.1881288500D+01  0.3164239597D+00
  0.5442492600D+00  0.7443082892D+00
 p    1  1.00
  0.1687144800D+00  0.1000000000D+01
  
  4 0
 s    6  1.00
  0.4173511500D+04  0.1834772199D-02
  0.6274579100D+03  0.1399462699D-01
  0.1429020900D+03  0.6858655195D-01
  0.4023432900D+02  0.2322408698D+00
  0.1282021300D+02  0.4690699496D+00
  0.4390437000D+01  0.3604551997D+00
 s    3  1.00
  0.1162636200D+02 -0.1149611854D+00
  0.2716279800D+01 -0.1691174879D+00
  0.7722184000D+00  0.1145851954D+01
 s    1  1.00
  0.2120315000D+00  0.1000000000D+01
 p    3  1.00
  0.1162636200D+02  0.6757974372D-01
  0.2716279800D+01  0.3239072986D+00
  0.7722184000D+00  0.7408951369D+00
 p    1  1.00
  0.2120315000D+00  0.1000000000D+01
  
  5 0
 s    6  1.00
  0.3047524900D+04  0.1834737091D-02
  0.4573695200D+03  0.1403732293D-01
  0.1039486800D+03  0.6884262165D-01
  0.2921015500D+02  0.2321844388D+00
  0.9286663000D+01  0.4679413476D+00
  0.3163927000D+01  0.3623119882D+00
 s    3  1.00
  0.7868272300D+01 -0.1193324245D+00
  0.1881288500D+01 -0.1608541561D+00
  0.5442492600D+00  0.1143456443D+01
 s    1  1.00
  0.1687144800D+00  0.1000000000D+01
 p    3  1.00
  0.7868272300D+01  0.6899906693D-01
  0.1881288500D+01  0.3164239597D+00
  0.5442492600D+00  0.7443082892D+00
 p    1  1.00
  0.1687144800D+00  0.1000000000D+01
  
  6 0
 s    6  1.00
  0.4173511500D+04  0.1834772199D-02
  0.6274579100D+03  0.1399462699D-01
  0.1429020900D+03  0.6858655195D-01
  0.4023432900D+02  0.2322408698D+00
  0.1282021300D+02  0.4690699496D+00
  0.4390437000D+01  0.3604551997D+00
 s    3  1.00
  0.1162636200D+02 -0.1149611854D+00
  0.2716279800D+01 -0.1691174879D+00
  0.7722184000D+00  0.1145851954D+01
 s    1  1.00
  0.2120315000D+00  0.1000000000D+01
 p    3  1.00
  0.1162636200D+02  0.6757974372D-01
  0.2716279800D+01  0.3239072986D+00
  0.7722184000D+00  0.7408951369D+00
 p    1  1.00
  0.2120315000D+00  0.1000000000D+01
  
  7 0
 s    6  1.00
  0.3047524900D+04  0.1834737091D-02
  0.4573695200D+03  0.1403732293D-01
  0.1039486800D+03  0.6884262165D-01
  0.2921015500D+02  0.2321844388D+00
  0.9286663000D+01  0.4679413476D+00
  0.3163927000D+01  0.3623119882D+00
 s    3  1.00
  0.7868272300D+01 -0.1193324245D+00
  0.1881288500D+01 -0.1608541561D+00
  0.5442492600D+00  0.1143456443D+01
 s    1  1.00
  0.1687144800D+00  0.1000000000D+01
 p    3  1.00
  0.7868272300D+01  0.6899906693D-01
  0.1881288500D+01  0.3164239597D+00
  0.5442492600D+00  0.7443082892D+00
 p    1  1.00
  0.1687144800D+00  0.1000000000D+01
  
  8 0
 s    6  1.00
  0.4173511500D+04  0.1834772199D-02
  0.6274579100D+03  0.1399462699D-01
  0.1429020900D+03  0.6858655195D-01
  0.4023432900D+02  0.2322408698D+00
  0.1282021300D+02  0.4690699496D+00
  0.4390437000D+01  0.3604551997D+00
 s    3  1.00
  0.1162636200D+02 -0.1149611854D+00
  0.2716279800D+01 -0.1691174879D+00
  0.7722184000D+00  0.1145851954D+01
 s    1  1.00
  0.2120315000D+00  0.1000000000D+01
 p    3  1.00
  0.1162636200D+02  0.6757974372D-01
  0.2716279800D+01  0.3239072986D+00
  0.7722184000D+00  0.7408951369D+00
 p    1  1.00
  0.2120315000D+00  0.1000000000D+01
  
  9 0
 s    6  1.00
  0.3047524900D+04  0.1834737091D-02
  0.4573695200D+03  0.1403732293D-01
  0.1039486800D+03  0.6884262165D-01
  0.2921015500D+02  0.2321844388D+00
  0.9286663000D+01  0.4679413476D+00
  0.3163927000D+01  0.3623119882D+00
 s    3  1.00
  0.7868272300D+01 -0.1193324245D+00
  0.1881288500D+01 -0.1608541561D+00
  0.5442492600D+00  0.1143456443D+01
 s    1  1.00
  0.1687144800D+00  0.1000000000D+01
 p    3  1.00
  0.7868272300D+01  0.6899906693D-01
  0.1881288500D+01  0.3164239597D+00
  0.5442492600D+00  0.7443082892D+00
 p    1  1.00
  0.1687144800D+00  0.1000000000D+01
  
 10 0
 s    6  1.00
  0.5484671700D+04  0.1831074396D-02
  0.8252349500D+03  0.1395017197D-01
  0.1880469600D+03  0.6844507786D-01
  0.5296450000D+02  0.2327143395D+00
  0.1689757000D+02  0.4701928990D+00
  0.5799635300D+01  0.3585208493D+00
 s    3  1.00
  0.1553961600D+02 -0.1107775519D+00
  0.3599933600D+01 -0.1480262626D+00
  0.1013761800D+01  0.1130767020D+01
 s    1  1.00
  0.2700058200D+00  0.1000000000D+01
 p    3  1.00
  0.1553961600D+02  0.7087426737D-01
  0.3599933600D+01  0.3397528370D+00
  0.1013761800D+01  0.7271585736D+00
 p    1  1.00
  0.2700058200D+00  0.1000000000D+01
  
 11 0
 s    6  1.00
  0.5484671700D+04  0.1831074396D-02
  0.8252349500D+03  0.1395017197D-01
  0.1880469600D+03  0.6844507786D-01
  0.5296450000D+02  0.2327143395D+00
  0.1689757000D+02  0.4701928990D+00
  0.5799635300D+01  0.3585208493D+00
 s    3  1.00
  0.1553961600D+02 -0.1107775519D+00
  0.3599933600D+01 -0.1480262626D+00
  0.1013761800D+01  0.1130767020D+01
 s    1  1.00
  0.2700058200D+00  0.1000000000D+01
 p    3  1.00
  0.1553961600D+02  0.7087426737D-01
  0.3599933600D+01  0.3397528370D+00
  0.1013761800D+01  0.7271585736D+00
 p    1  1.00
  0.2700058200D+00  0.1000000000D+01
  
 12 0
 s    3  1.00
  0.1873113700D+02  0.3349460400D-01
  0.2825394400D+01  0.2347269500D+00
  0.6401216900D+00  0.8137573301D+00
 s    1  1.00
  0.1612777600D+00  0.1000000000D+01
  
 13 0
 s    3  1.00
  0.1873113700D+02  0.3349460400D-01
  0.2825394400D+01  0.2347269500D+00
  0.6401216900D+00  0.8137573301D+00
 s    1  1.00
  0.1612777600D+00  0.1000000000D+01
  
 14 0
 s    3  1.00
  0.1873113700D+02  0.3349460400D-01
  0.2825394400D+01  0.2347269500D+00
  0.6401216900D+00  0.8137573301D+00
 s    1  1.00
  0.1612777600D+00  0.1000000000D+01
  
 15 0
 s    3  1.00
  0.1873113700D+02  0.3349460400D-01
  0.2825394400D+01  0.2347269500D+00
  0.6401216900D+00  0.8137573301D+00
 s    1  1.00
  0.1612777600D+00  0.1000000000D+01
  
 16 0
 s    3  1.00
  0.1873113700D+02  0.3349460400D-01
  0.2825394400D+01  0.2347269500D+00
  0.6401216900D+00  0.8137573301D+00
 s    1  1.00
  0.1612777600D+00  0.1000000000D+01
  
 17 0
 s    3  1.00
  0.1873113700D+02  0.3349460400D-01
  0.2825394400D+01  0.2347269500D+00
  0.6401216900D+00  0.8137573301D+00
 s    1  1.00
  0.1612777600D+00  0.1000000000D+01
  
 18 0
 s    3  1.00
  0.1873113700D+02  0.3349460400D-01
  0.2825394400D+01  0.2347269500D+00
  0.6401216900D+00  0.8137573301D+00
 s    1  1.00
  0.1612777600D+00  0.1000000000D+01
  
 19 0
 s    3  1.00
  0.1873113700D+02  0.3349460400D-01
  0.2825394400D+01  0.2347269500D+00
  0.6401216900D+00  0.8137573301D+00
 s    1  1.00
  0.1612777600D+00  0.1000000000D+01
  
 20 0
 s    3  1.00
  0.1873113700D+02  0.3349460400D-01
  0.2825394400D+01  0.2347269500D+00
  0.6401216900D+00  0.8137573301D+00
 s    1  1.00
  0.1612777600D+00  0.1000000000D+01
 
 
[MO]
 Sym=      1.1
 Ene=     -20.4593
 Spin= Alpha
 Occup=    2.000000
1 -0.000055937882452
2 -0.000668930119305
3 0.003113247226747
4 -0.000138059360553
5 0.000099470696763
6 -0.000020168964044
7 0.001704628995595
8 -0.003134475469315
9 -0.000498819188783
10 0.000021078452420
11 0.000122704301130
12 -0.002367707599583
13 -0.000073659719461
14 -0.000073758911849
15 0.000021701169408
16 0.000125984809539
17 0.000026038536420
18 0.001393946674066
19 -0.000000694624087
20 0.000013840361284
21 0.000301878549777
22 0.000012236132587
23 -0.000042879220852
24 -0.000032002920855
25 0.000951695595772
26 0.000564110003592
27 0.000669452117958
28 -0.000001873990310
29 -0.000015759527152
30 0.000217580259123
31 0.000009228227458
32 0.000011143732801
33 0.000011753326652
34 0.000002411979046
35 -0.000236549987742
36 -0.000245151076539
37 -0.000005110158878
38 -0.000055523807603
39 -0.000003341132401
40 -0.000021420046669
41 -0.000010030044057
42 -0.000021482289594
43 0.000095228868240
44 -0.000055166969843
45 -0.000041908437762
46 -0.000001238017196
47 -0.000018275228389
48 -0.000047357820359
49 -0.000011296275024
50 0.000003923345816
51 -0.000000278141938
52 0.000052669767475
53 -0.000029178776597
54 -0.000024898020355
55 -0.000005842113993
56 -0.000063085594088
57 0.000631480534178
58 -0.000027314357329
59 0.000004251195223
60 0.000003260198828
61 -0.000050647603017
62 0.000222349272164
63 0.000296036583341
64 0.000008099384366
65 0.000040012871230
66 -0.001112264781625
67 -0.000037486895209
68 -0.000043615707307
69 -0.000035149425150
70 0.000384342425962
71 0.000613459333812
72 -0.000628419995474
73 0.000163435758084
74 0.000282000766927
75 0.005333818841045
76 -0.000036919650511
77 -0.000024001801059
78 -0.000017292831799
79 0.000107743830490
80 0.008072155176310
81 0.003459723140059
82 0.99586242437151
83 0.023416936910587
84 -0.015350925881189
85 -0.000296835918112
86 -0.002066577398940
87 -0.001032791287964
88 0.000372836574713
89 0.004419666190283
90 0.002093577781737
91 -0.003543808434713
92 -0.000570452263907
93 0.002048858159220
94 0.000129229226431
95 -0.000042270513754
96 0.000038970966402
97 -0.001096635834998
98 -0.000469847644704
99 -0.000668902198730
100 0.000010563485364
101 0.000055658264439
102 -0.000003309832115
103 0.000047542905895
104 0.000038575859192
105 0.000131320376021
106 0.000060651930391
107 0.000356398517925
108 0.000056184411713
109 -0.000637347111803
110 0.000134958059272
111 0.001137177877933
112 -0.000022808287090
113 -0.000512824834294
114 0.000111033030049
115 0.000116173276107
116 0.000016634426543
117 0.000298174219804
 Sym=      2.1
 Ene=     -20.4486
 Spin= Alpha
 Occup=    2.000000
1 -0.000065461054249
2 -0.000714511148308
3 0.003752919535306
4 -0.000253572132849
5 -0.000126694647369
6 -0.000181014523014
7 0.000898732634943
8 0.002763066585054
9 0.001855830257103
10 0.000035077210652
11 0.000283044885584
12 -0.000497590611748
13 0.000014773879943
14 0.000079069834811
15 0.000049691033463
16 -0.000361680608913
17 -0.000879534392425
18 -0.001158568042547
19 -0.000013552242031
20 -0.000142544106204
21 0.000170489986598
22 -0.000031401254662
23 -0.000047102016920
24 0.000011965404395
25 -0.000462936284088
26 0.000479085757590
27 -0.000084969811871
28 0.000007365900072
29 0.000071862485626
30 -0.000524320090493
31 0.000006550176082
32 0.000001971625534
33 -0.000012000425153
34 -0.000267500419796
35 0.000025788370718
36 0.000153163689100
37 0.000002064216655
38 0.000032054020475
39 -0.000002047852703
40 0.000014423309138
41 0.000005246936717
42 -0.000000142135045
43 0.000071200458257
44 -0.000012249036976
45 -0.000008490032348
46 0.000004687237940
47 0.000055308403626
48 -0.000325888112324
49 0.000009753828748
50 -0.000001978039833
51 -0.000003460408978
52 -0.000133516709666
53 -0.000013988681485
54 -0.000048668073923
55 -0.000000272701974
56 0.000009089446285
57 0.000257520488304
58 0.000025843553540
59 0.000000719706296
60 0.000014870379919
61 -0.000197106128000
62 -0.000097102618294
63 -0.000018222465198
64 0.000015854958366
65 0.000185459974082
66 -0.000037035075350
67 0.000071365985755
68 0.000054267984882
69 0.000037691962364
70 -0.000804369403228
71 -0.000634964798621
72 -0.000108354014208
73 0.000117525338406
74 -0.000011630481565
75 0.003949039642583
76 0.000117882956854
77 0.000011991051489
78 0.000044477264224
79 0.007013034259224
80 -0.005538051221200
81 0.000681766363140
82 0.003509840854733
83 -0.000411249421734
84 0.002012523481384
85 0.000076910497944
86 0.000070059707926
87 0.000066980226658
88 -0.001365441212923
89 -0.000157675267012
90 -0.000677300850922
91 0.99588478319070
92 0.023234055762728
93 -0.014829080364726
94 -0.001841119845122
95 0.001242489574704
96 -0.000306216642774
97 0.003868423894514
98 -0.003030389144294
99 0.000396452645835
100 0.000010519537023
101 0.000029074553533
102 0.000031893052280
103 -0.000049280895316
104 0.000008032206643
105 -0.000066294971034
106 -0.000058766518105
107 -0.000042400473862
108 0.000222512860576
109 0.000591378314533
110 -0.000418825030379
111 -0.000528782238168
112 0.000228571515423
113 0.000207778324741
114 -0.000112560042071
115 -0.000254494536697
116 0.000008758852019
117 0.000080874162404
 Sym=      3.1
 Ene=     -15.7517
 Spin= Alpha
 Occup=    2.000000
1 -0.000004328715017
2 -0.000519790786538
3 0.003770996344179
4 0.000023340854356
5 0.000016084562806
6 -0.000212976520740
7 0.000413874216839
8 -0.000568444969744
9 -0.002622122624227
10 -0.000034031812908
11 -0.000418542754763
12 0.001065924108256
13 -0.000039130442827
14 -0.000095328534675
15 0.000168301361251
16 -0.000774541272909
17 0.000243013344774
18 -0.000201476434708
19 0.000018298581336
20 0.000097226604798
21 -0.000599056933719
22 -0.000084792518454
23 0.000046545352749
24 0.000074981135650
25 0.000023538510539
26 -0.001265669513715
27 -0.001258933070347
28 -0.000039544161829
29 -0.000156532273862
30 0.000932975385897
31 -0.000035681530570
32 0.000012317776161
33 -0.000017330767899
34 0.000614666410344
35 0.000021032996741
36 0.000117510483466
37 -0.000000973098923
38 -0.000025074082043
39 -0.000042510001022
40 -0.000008014573872
41 0.000023936769208
42 0.000023576068967
43 -0.000251787327052
44 0.000129036421404
45 0.000112373297439
46 -0.000024597400985
47 -0.000133501978213
48 0.000907024171108
49 -0.000001695489828
50 0.000001091725212
51 -0.000000739843894
52 0.000207075208410
53 0.000209496760028
54 0.000198073904983
55 0.000028820586749
56 0.000247687878456
57 -0.001865236955323
58 -0.000030253183986
59 0.000042222872659
60 -0.000024891757294
61 0.000402027208110
62 -0.000686377401866
63 -0.000436481265843
64 0.99605332108199
65 0.024479123855565
66 -0.014784793413921
67 -0.000022839145616
68 0.000018647741542
69 -0.000100991781120
70 0.000427995629652
71 -0.000283735057490
72 -0.001310235031146
73 -0.000027526287975
74 -0.000380567596814
75 0.000688661208661
76 0.000140794176320
77 0.000074767318031
78 0.000138404079903
79 -0.000315041814677
80 -0.000572939408558
81 -0.000161744825305
82 -0.000003299673276
83 -0.000031558319433
84 0.000257896424339
85 0.000001216126860
86 0.000002005976661
87 -0.000038726934469
88 -0.000003378978359
89 -0.000047766060971
90 0.000079858547134
91 0.000007616791527
92 0.000136037477484
93 -0.000511684447955
94 -0.000023902564813
95 -0.000026488108803
96 -0.000002126167593
97 0.000287270788504
98 0.000096475858460
99 0.000135862298920
100 -0.000030063876013
101 -0.000109852166465
102 0.000056324553396
103 -0.000344682110043
104 -0.000061401601613
105 -0.000001061254266
106 0.000020667099733
107 -0.000090301483933
108 -0.000100677308287
109 0.000230565723560
110 -0.000210778833077
111 -0.000112610581535
112 0.000362826747335
113 0.001808059216826
114 0.000267791561901
115 0.002217628157544
116 0.000326488829559
117 0.001895665806028
 Sym=      4.1
 Ene=     -15.6718
 Spin= Alpha
 Occup=    2.000000
1 0.000044689943960
2 0.000394957167217
3 -0.002057419677627
4 0.000006593024460
5 -0.000068808891704
6 -0.000062318174072
7 -0.000339671716380
8 0.001293975299601
9 0.000631077068211
10 -0.000047235312266
11 -0.000402969475530
12 0.004772647506205
13 -0.000012160907765
14 0.000037120855340
15 0.000008220937911
16 -0.000310604111420
17 -0.001143266631440
18 -0.002289562374045
19 0.000046737300227
20 -0.000356272901946
21 0.008021310423797
22 0.000094103814276
23 -0.000032262316671
24 0.000049395917152
25 -0.009380855337496
26 0.000434251137588
27 -0.001304274880815
28 0.99611293797907
29 0.025037572919507
30 -0.021355396095899
31 0.000227029401953
32 -0.000340833475804
33 -0.000432885680981
34 -0.003056216295072
35 0.003798457395983
36 0.004083512578281
37 0.000067461755258
38 -0.000169734380875
39 0.006677413951033
40 0.000094154226320
41 0.000133048537429
42 0.000175434750714
43 0.004358100885878
44 0.000343515280756
45 0.001174162134963
46 -0.000203874851215
47 0.000007028867369
48 -0.000269511062281
49 0.000102260345212
50 -0.000028463843148
51 -0.000016045578320
52 0.000906237949632
53 -0.000664200069414
54 -0.000627794251596
55 0.000015979804886
56 0.000205138467163
57 -0.003451804302283
58 -0.000178376420890
59 -0.000074035990658
60 -0.000106919868113
61 0.003679523446166
62 -0.001344105788153
63 -0.000951475320372
64 0.000005181050475
65 -0.000187598196786
66 0.001303102640839
67 0.000011203144671
68 0.000000646419005
69 0.000046960891255
70 -0.000238732344857
71 -0.000041257864063
72 0.000372896744718
73 -0.000012642138828
74 -0.000088969610940
75 0.000583188444129
76 0.000010254544047
77 -0.000001096689488
78 -0.000034601308599
79 0.000012244835617
80 -0.000733546656420
81 -0.000178035494431
82 -0.000001980059783
83 -0.000022616904602
84 0.000274241431893
85 -0.000014589794309
86 -0.000010483468621
87 -0.000001723480212
88 0.000058365323887
89 -0.000008243518215
90 -0.000031488687036
91 0.000003817916649
92 0.000055792337892
93 -0.000434731017089
94 0.000001877210508
95 -0.000002686013312
96 0.000006790268762
97 0.000144960552919
98 -0.000037474629623
99 0.000004839828411
100 0.000046137638128