[Molden Format]
[Molpro variables]
_NUMVAR=  845.0000000000000    
_AVOGAD= 0.6022136736000000E+24
_BOLTZ= 0.1380658000000000E-22
_CLIGHT=  29979245800.00000    
_EV2006= 0.3674930886769165E-01
_EV= 0.3674932534394180E-01
_ENULL= 0.8854187817000000E-11
_KJOULE= 0.3808798324128737E-03
_KJOULE/MOL= 0.3808798324128737E-03
_CM= 0.4556335267302901E-05
_CM-1= 0.4556335267302901E-05
_DEB2SI= 0.3335641000000000E-29
_AMU2AU=  1822.888390000000    
_KCAL= 0.1593601117815568E-02
_KCAL/MOL= 0.1593601117815568E-02
_KELVIN2006= 0.3166828861084835E-05
_KELVIN= 0.3166814820820034E-05
_JOULE= 0.4359748200000000E-17
_HERTZ2006= 0.1519829850815779E-15
_HERTZ= 0.1519829846011223E-15
_HZ2006= 0.1519829850815779E-15
_HZ= 0.1519829846011223E-15
_JPCAL=  4.184000000000000    
_PLANCK= 0.6626075540000000E-33
_TOA2006= 0.5291772490000000    
_TOA= 0.5291772090000000    
_TOANG2006= 0.5291772490000000    
_TOANG= 0.5291772090000000    
_TORAD= 0.1745329251994330E-01
_TOCM=  219474.6306700000    
_TODEBYE=  2.541580000000000    
_TOEV2006=  27.21139610000000    
_TOE= 0.4803242000000000E-09
_TOEV=  27.21138390000000    
_TOHERTZ2006=  6579683899900000.    
_TOHERTZ=  6579683920700000.    
_TOHZ2006=  6579683899900000.    
_TOHZ=  6579683920700000.    
_TOK2006=  315773.3000000000    
_TOK=  315774.7000000000    
_TOKCAL=  627.5096000000000    
_TOKELVIN2006=  315773.3000000000    
_TOKELVIN=  315774.7000000000    
_TOKJ=  2625.500000000000    
_TOKJOULE=  2625.500000000000    
_TOKG= 0.1660565586000000E-26
_ANG2006=  1.889725988578923    
_ANG=  1.889726131421507    
_ANGSTROM2006=  1.889725988578923    
_ANGSTROM=  1.889726131421507    
_RPAREF=  0.000000000000000    
_RPADISS=  0.000000000000000    
_IGNORE_UNDEF=  2.000000000000000    
_STRICTCHECK=  0.000000000000000    
_SEW_ONEEL=  0.000000000000000    
_CPPDONE=FALSE
_DKROLL_DONE=  0.000000000000000    
_FOCKDONE=TRUE
_GRADONE=FALSE
_HESSDONE=FALSE
_INTDONE=TRUE
_SCFDONE=TRUE
_MODUL_BLOCK=FALSE
_MODUL_CUDA=FALSE
_MODUL_SLATER=FALSE
_MODUL_MRCC=FALSE
_MODUL_NBO6=FALSE
_MODUL_NECI=TRUE
_MODUL_AIMS=TRUE
_MRCC_EXEC=
_FITC_AO_SAVED=FALSE
_FITC_MO_SAVED=FALSE
_SHARED_FS=TRUE
_LSTYP=SEWARD
_INTYP=INTS
_GEOMTYP=ZMAT
_GRADTYP=ALASKA
_DIRECT=FALSE
_DKHO= -1.000000000000000    
_SYNCM=  0.000000000000000    
_BASIS=$BSET
_ZORIENT=  1.000000000000000    
_NELEC=  72.00000000000000    
!SPIN=  0.000000000000000    
_QSDSTEP=  0.000000000000000    
_QSDIRC=  0.000000000000000    
_PROGRAM=HF-SCF
_CPUSTEP=  1.620000000000000    
_SYSSTEP= 0.1000000000000000    
_WALLSTEP=  1.730000000000000    
!DFSCF=  0.000000000000000    
!SCSGRD=  0.000000000000000    
_BASINP=  610.0000000000000    
_CPUTOT=  5.060000000000000    
_CPUSORT= 0.5300000000000002    
_SYSSORT= 0.2200000000000000    
_WALLSORT= 0.7500000000000000    
_DFTEXFAC=  1.000000000000000    
_DMX= -3.108846116902072    
_DMY=  3.739598278132320    
_DMZ= -1.183372370667295    
_DMX_SCF= -3.108846116902072    
_DMY_SCF=  3.739598278132320    
_DMZ_SCF= -1.183372370667295    
_EHOMO=-0.3197301590159471    
_ELUMO= 0.1176748885968703    
_ENERGY= -438.6928466549928    
_ENUC=  494.3192247854387    
_GRADEXFAC=  9999.000000000000    
_GRADMETHOD=  1.000000000000000    
_NMRMETHOD=  0.000000000000000    
!GRID_FREEZE= -1.000000000000000    
_ITERATIONS=  11.00000000000000    
_LASTNELEC=  72.00000000000000    
_LASTSPIN=  0.000000000000000    
_LASTSYM=  1.000000000000000    
_MPP_PROG=  0.000000000000000    
_NPROC_MPP=  1.000000000000000    
_NPROC_MPPX=  1.000000000000000    
_NPROC_SMP=  1.000000000000000    
_NUMSTEP=  0.000000000000000    
_ORBITAL=  2100.200000000000    
_PI=  3.141592653589793    
_SEIG_MIN= 0.3207601311876652E-02
_SEWPROP=TRUE
_STATUS=  1.000000000000000    
_SYSTOT= 0.3600000000000000    
_VERSION=  2012001.000000000    
_WALLTOT=  5.420000000000000    
_DATE=23-Sep-15
_LASTORB=RHF
_MACHINE=Linux-3.2.0-90-generic/sce-chem-c01105(x86_64) 64 bit serial version
_OUTPUT=/home/s1267651/phd_mini_19Sept2015/protein/molpro2/isoleucine_6-31g_scf.xml
_PGROUP=C1
_TIME=17:59:23
_LIBMOL=/usr/local/molpro/molprop_2012_1_Linux_x86_64_i8/lib/
!VIBCNT=  0.000000000000000    
!RGHFCNT=  0.000000000000000    
!SURFREC=  0.000000000000000    
!POLYREC=  0.000000000000000    
!DIPREC=  0.000000000000000    
!VSCFREC=  0.000000000000000    
!VCIREC=  0.000000000000000    
!PVCIREC=  0.000000000000000    
!VMP2REC=  0.000000000000000    
!VMCSCFREC=  0.000000000000000    
!VMRCIREC=  0.000000000000000    
!VIBINFO=  0.000000000000000    
!GAREC=  0.000000000000000    
!SCFORB=  21002.00000000000    
!NEWMOL= -1.000000000000000    
!NEWSYM= -1.000000000000000    
_SLFILES=slscratch
_NGSSTO=  9.000000000000000    
_SIN=SIN
_COS=COS
_TAN=TAN
_ACOS=ACOS
_ASIN=ASIN
_ATAN=ATAN
_COSH=COSH
_SINH=SINH
_TANH=TANH
_ABS=ABS
_MOD=MOD
_ERF=ERF
_REFC=REFC
_ERFC=ERFC
_HYPOT=HYPOT
_J0=J0
_J1=J1
_JN=JN
_GAMMA=GAMMA
_LGAMMA=LGAMMA
_Y0=Y0
_Y1=Y1
_YN=YN
_EXP=EXP
_LOG=LOG
_LOG10=LOG10
_SQRT=SQRT
_INT=INT
_NINT=NINT
_MAX=MAX
_MIN=MIN
_COSMO=  0.000000000000000    
_COSMOIT=  0.000000000000000    
_COSMOES=  0.000000000000000    
_COSMOEDS=  0.000000000000000    
_COSMOEC=  0.000000000000000    
_COSMOEDCORR=  0.000000000000000    
_FEPSI=  1.000000000000000    
_SL_IsMM=  0.000000000000000    
_SL_NSYM=  1.000000000000000    
_SL_System_BitSw=  0.000000000000000    
_SL_Unique_atoms=  0.000000000000000    
_SL_GRAD=  0.000000000000000    
_SL_MAXUPD_Hess=  5.000000000000000    
_SL_N_PRINT_COD=  5.000000000000000    
_SL_PRINT_CODES=  0.000000000000000    
_SL_BasType=  0.000000000000000    
_SL_Energy_Pred=  0.000000000000000    
_SL_New_Coords=  0.000000000000000    
_SL_Total_Nuclea=  0.000000000000000    
_SL_Highest_Mltp=  0.000000000000000    
_SL_Ref_Geom=  0.000000000000000    
_SL_Symmetry_ope=  1.000000000000000    
_SL_agrad=  0.000000000000000    
_SL_GrdMax=  0.000000000000000    
_SL_GrdNorm=  0.000000000000000    
_SL_GrdRMS=  0.000000000000000    
_SL_Hss_Q=  0.000000000000000    
_SL_Hss_X=  0.000000000000000    
_SL_BMxOld=  0.000000000000000    
_SL_KtB=  0.000000000000000    
!LATTICE= -1.000000000000000    
!NEWLATTICE=  0.000000000000000    
!LATGRAD_VAR=FALSE
!SEW_LATTICE=  1.000000000000000    
!LOCAL=  0.000000000000000    
!SAVEDOM= -1.000000000000000    
!RESTDOM= -1.000000000000000    
!SAVEDOM_HF= -1.000000000000000    
!RESTDOM_HF= -1.000000000000000    
!HESSREC=  0.000000000000000    
!FREQREC=  0.000000000000000    
!NMODREC=  0.000000000000000    
!GTASKS=  0.000000000000000    
!HTASKS=  0.000000000000000    
!THRCHG= 0.1000000000000000    
!DEBUG= -1.000000000000000    
!CFIT_CPHF=  0.000000000000000    
!RDOMAUX_CPHF=  3.000000000000000    
!THRAO_CPHF= 0.1000000000000000E-09
!THRMO_CPHF= 0.1000000000000000E-08
!THROV_CPHF= 0.1000000000000000E-11
!THRSW_CPHF= 0.1000000000000000E-09
!THRPROD_CPHF= 0.1000000000000000E-08
!THRAOPR_CPHF= 0.1000000000000000E-11
!CFIT_SCFGRD=  0.000000000000000    
!RDOMAUX_SCFGRD=  5.000000000000000    
!THRAO_SCFGRD= 0.1000000000000000E-09
!THRMO_SCFGRD= 0.1000000000000000E-08
!THROV_SCFGRD= 0.1000000000000000E-11
!THRSW_SCFGRD= 0.1000000000000000E-09
!THRPROD_SCFGRD= 0.1000000000000000E-08
!THRAOPR_SCFGRD= 0.1000000000000000E-11
!LOCFIT_SCF=  0.000000000000000    
!LOCFIT_MP2= -1.000000000000000    
_RIDOM=  0.000000000000000    
!CC2_METHOD=  0.000000000000000    
_BASIS2006=FALSE
_SVDDEL= -1.000000000000000    
_SVDDELA= -1.000000000000000    
_SVDDELP= -1.000000000000000    
_SVDDELF= -1.000000000000000    
_SVDDELS= -1.000000000000000    
_SVDDEL_ABS= -1.000000000000000    
_SVDDELA_ABS= -1.000000000000000    
_SVDDELP_ABS= -1.000000000000000    
_SVDDELF_ABS= -1.000000000000000    
_SVDDELS_ABS= -1.000000000000000    
_MAXBASIS=  0.000000000000000    
!OPT_CONICAL=  0.000000000000000    
!CLEARSP_JGRID=  0.000000000000000    
_4EXT_NDISKS=  1.000000000000000    
!ZMP=  0.000000000000000    
_MAXIT_ZMP=  500.0000000000000    
_MAXDIS_ZMP=  100.0000000000000    
_ACCU_ZMP=  14.00000000000000    
_SHIFTA_ZMP= -100.0000000000000    
!EMBEDFLAG=  1.000000000000000    
!EMBED=FALSE
!EMBED_F12=FALSE
!EMBEDNUC=  0.000000000000000    
_EMBEDENERGY=  0.000000000000000    
_KSPACETIME=  0.000000000000000    
_RSPACETIME=  0.000000000000000    
!EMBED_DFC=FALSE
!NUM_VOIDS=  0.000000000000000    
_IBODY=  0.000000000000000    
_EMBE_TOTAL=  0.000000000000000    
_EMBE_HF=  0.000000000000000    
_EMBE_CORR=  0.000000000000000    
!EDFT=  0.000000000000000    
_IFASTLATGRAD=  0.000000000000000    
_SINDEX=  0.000000000000000    
TITLE=ISOLEUCINE
BSET=6-31G
GX1=  1.225000000000000    
GY1= 0.3120000000000000    
GZ1= 0.2470000000000001    
GX2=-0.6500000000000000E-01
GY2=-0.4640000000000000    
GZ2=-0.1200000000000000E-01
GX3=-0.2480000000000000    
GY3= -1.522000000000001    
GZ3=  1.072000000000000    
GX4= -1.251000000000000    
GY4= 0.4990000000000002    
GZ4= 0.1000000000000000E-01
GX5= -2.540000000000000    
GY5=-0.2760000000000000    
GZ5=-0.2480000000000000    
GX6=  1.405000000000000    
GY6=  1.349000000000000    
GZ6=-0.8149999999999999    
GX7=  2.398000000000000    
GY7=-0.6390000000000000    
GZ7= 0.2250000000000001    
GX8=  3.103000000000000    
GY8=-0.7610000000000003    
GZ8=  1.213000000000000    
GX9=  2.649000000000000    
GY9= -1.313000000000000    
GZ9=-0.8220000000000000    
GX10=  1.169000000000000    
GY10= 0.7950000000000000    
GZ10=  1.220000000000000    
GX11=-0.8999999999999999E-02
GY11=-0.9480000000000000    
GZ11=-0.9850000000000000    
GX12=  2.279000000000000    
GY12=  1.874000000000000    
GZ12=-0.6400000000000000    
GX13= 0.6020000000000000    
GY13=  2.001000000000000    
GZ13=-0.8000000000000000    
GX14=  1.459000000000000    
GY14= 0.8890000000000000    
GZ14= -1.741000000000000    
GX15= -1.121000000000000    
GY15=  1.253000000000000    
GZ15=-0.7630000000000000    
GX16= -1.308000000000000    
GY16= 0.9820000000000001    
GZ16= 0.9830000000000000    
GX17= -1.167000000000000    
GY17= -2.075000000000000    
GZ17= 0.8880000000000000    
GX18= 0.5960000000000003    
GY18= -2.208000000000000    
GZ18=  1.056000000000000    
GX19=-0.3050000000000000    
GY19= -1.039000000000000    
GZ19=  2.045000000000000    
GX20= -3.385000000000000    
GY20= 0.4090000000000000    
GZ20=-0.2320000000000000    
GX21= -2.671000000000000    
GY21= -1.031000000000000    
GZ21= 0.5250000000000000    
GX22= -2.484000000000000    
GY22=-0.7600000000000000    
GZ22= -1.221000000000000    
STR=../input/ISOLEUCINE_6-31G_scf.mld
[Atoms] Angs
C     1    6         1.2250000000        0.3120000000        0.2470000000
C     2    6        -0.0650000000       -0.4640000000       -0.0120000000
C     3    6        -0.2480000000       -1.5220000000        1.0720000000
C     4    6        -1.2510000000        0.4990000000        0.0100000000
C     5    6        -2.5400000000       -0.2760000000       -0.2480000000
N     6    7         1.4050000000        1.3490000000       -0.8150000000
C     7    6         2.3980000000       -0.6390000000        0.2250000000
O     8    8         3.1030000000       -0.7610000000        1.2130000000
O     9    8         2.6490000000       -1.3130000000       -0.8220000000
H    10    1         1.1690000000        0.7950000000        1.2200000000
H    11    1        -0.0090000000       -0.9480000000       -0.9850000000
H    12    1         2.2790000000        1.8740000000       -0.6400000000
H    13    1         0.6020000000        2.0010000000       -0.8000000000
H    14    1         1.4590000000        0.8890000000       -1.7410000000
H    15    1        -1.1210000000        1.2530000000       -0.7630000000
H    16    1        -1.3080000000        0.9820000000        0.9830000000
H    17    1        -1.1670000000       -2.0750000000        0.8880000000
H    18    1         0.5960000000       -2.2080000000        1.0560000000
H    19    1        -0.3050000000       -1.0390000000        2.0450000000
H    20    1        -3.3850000000        0.4090000000       -0.2320000000
H    21    1        -2.6710000000       -1.0310000000        0.5250000000
H    22    1        -2.4840000000       -0.7600000000       -1.2210000000
[GTO]
  1 0
 s    6  1.00
  0.3047524900D+04  0.1834737091D-02
  0.4573695200D+03  0.1403732293D-01
  0.1039486800D+03  0.6884262165D-01
  0.2921015500D+02  0.2321844388D+00
  0.9286663000D+01  0.4679413476D+00
  0.3163927000D+01  0.3623119882D+00
 s    3  1.00
  0.7868272300D+01 -0.1193324245D+00
  0.1881288500D+01 -0.1608541561D+00
  0.5442492600D+00  0.1143456443D+01
 s    1  1.00
  0.1687144800D+00  0.1000000000D+01
 p    3  1.00
  0.7868272300D+01  0.6899906693D-01
  0.1881288500D+01  0.3164239597D+00
  0.5442492600D+00  0.7443082892D+00
 p    1  1.00
  0.1687144800D+00  0.1000000000D+01
  
  2 0
 s    6  1.00
  0.3047524900D+04  0.1834737091D-02
  0.4573695200D+03  0.1403732293D-01
  0.1039486800D+03  0.6884262165D-01
  0.2921015500D+02  0.2321844388D+00
  0.9286663000D+01  0.4679413476D+00
  0.3163927000D+01  0.3623119882D+00
 s    3  1.00
  0.7868272300D+01 -0.1193324245D+00
  0.1881288500D+01 -0.1608541561D+00
  0.5442492600D+00  0.1143456443D+01
 s    1  1.00
  0.1687144800D+00  0.1000000000D+01
 p    3  1.00
  0.7868272300D+01  0.6899906693D-01
  0.1881288500D+01  0.3164239597D+00
  0.5442492600D+00  0.7443082892D+00
 p    1  1.00
  0.1687144800D+00  0.1000000000D+01
  
  3 0
 s    6  1.00
  0.3047524900D+04  0.1834737091D-02
  0.4573695200D+03  0.1403732293D-01
  0.1039486800D+03  0.6884262165D-01
  0.2921015500D+02  0.2321844388D+00
  0.9286663000D+01  0.4679413476D+00
  0.3163927000D+01  0.3623119882D+00
 s    3  1.00
  0.7868272300D+01 -0.1193324245D+00
  0.1881288500D+01 -0.1608541561D+00
  0.5442492600D+00  0.1143456443D+01
 s    1  1.00
  0.1687144800D+00  0.1000000000D+01
 p    3  1.00
  0.7868272300D+01  0.6899906693D-01
  0.1881288500D+01  0.3164239597D+00
  0.5442492600D+00  0.7443082892D+00
 p    1  1.00
  0.1687144800D+00  0.1000000000D+01
  
  4 0
 s    6  1.00
  0.3047524900D+04  0.1834737091D-02
  0.4573695200D+03  0.1403732293D-01
  0.1039486800D+03  0.6884262165D-01
  0.2921015500D+02  0.2321844388D+00
  0.9286663000D+01  0.4679413476D+00
  0.3163927000D+01  0.3623119882D+00
 s    3  1.00
  0.7868272300D+01 -0.1193324245D+00
  0.1881288500D+01 -0.1608541561D+00
  0.5442492600D+00  0.1143456443D+01
 s    1  1.00
  0.1687144800D+00  0.1000000000D+01
 p    3  1.00
  0.7868272300D+01  0.6899906693D-01
  0.1881288500D+01  0.3164239597D+00
  0.5442492600D+00  0.7443082892D+00
 p    1  1.00
  0.1687144800D+00  0.1000000000D+01
  
  5 0
 s    6  1.00
  0.3047524900D+04  0.1834737091D-02
  0.4573695200D+03  0.1403732293D-01
  0.1039486800D+03  0.6884262165D-01
  0.2921015500D+02  0.2321844388D+00
  0.9286663000D+01  0.4679413476D+00
  0.3163927000D+01  0.3623119882D+00
 s    3  1.00
  0.7868272300D+01 -0.1193324245D+00
  0.1881288500D+01 -0.1608541561D+00
  0.5442492600D+00  0.1143456443D+01
 s    1  1.00
  0.1687144800D+00  0.1000000000D+01
 p    3  1.00
  0.7868272300D+01  0.6899906693D-01
  0.1881288500D+01  0.3164239597D+00
  0.5442492600D+00  0.7443082892D+00
 p    1  1.00
  0.1687144800D+00  0.1000000000D+01
  
  6 0
 s    6  1.00
  0.4173511500D+04  0.1834772199D-02
  0.6274579100D+03  0.1399462699D-01
  0.1429020900D+03  0.6858655195D-01
  0.4023432900D+02  0.2322408698D+00
  0.1282021300D+02  0.4690699496D+00
  0.4390437000D+01  0.3604551997D+00
 s    3  1.00
  0.1162636200D+02 -0.1149611854D+00
  0.2716279800D+01 -0.1691174879D+00
  0.7722184000D+00  0.1145851954D+01
 s    1  1.00
  0.2120315000D+00  0.1000000000D+01
 p    3  1.00
  0.1162636200D+02  0.6757974372D-01
  0.2716279800D+01  0.3239072986D+00
  0.7722184000D+00  0.7408951369D+00
 p    1  1.00
  0.2120315000D+00  0.1000000000D+01
  
  7 0
 s    6  1.00
  0.3047524900D+04  0.1834737091D-02
  0.4573695200D+03  0.1403732293D-01
  0.1039486800D+03  0.6884262165D-01
  0.2921015500D+02  0.2321844388D+00
  0.9286663000D+01  0.4679413476D+00
  0.3163927000D+01  0.3623119882D+00
 s    3  1.00
  0.7868272300D+01 -0.1193324245D+00
  0.1881288500D+01 -0.1608541561D+00
  0.5442492600D+00  0.1143456443D+01
 s    1  1.00
  0.1687144800D+00  0.1000000000D+01
 p    3  1.00
  0.7868272300D+01  0.6899906693D-01
  0.1881288500D+01  0.3164239597D+00
  0.5442492600D+00  0.7443082892D+00
 p    1  1.00
  0.1687144800D+00  0.1000000000D+01
  
  8 0
 s    6  1.00
  0.5484671700D+04  0.1831074396D-02
  0.8252349500D+03  0.1395017197D-01
  0.1880469600D+03  0.6844507786D-01
  0.5296450000D+02  0.2327143395D+00
  0.1689757000D+02  0.4701928990D+00
  0.5799635300D+01  0.3585208493D+00
 s    3  1.00
  0.1553961600D+02 -0.1107775519D+00
  0.3599933600D+01 -0.1480262626D+00
  0.1013761800D+01  0.1130767020D+01
 s    1  1.00
  0.2700058200D+00  0.1000000000D+01
 p    3  1.00
  0.1553961600D+02  0.7087426737D-01
  0.3599933600D+01  0.3397528370D+00
  0.1013761800D+01  0.7271585736D+00
 p    1  1.00
  0.2700058200D+00  0.1000000000D+01
  
  9 0
 s    6  1.00
  0.5484671700D+04  0.1831074396D-02
  0.8252349500D+03  0.1395017197D-01
  0.1880469600D+03  0.6844507786D-01
  0.5296450000D+02  0.2327143395D+00
  0.1689757000D+02  0.4701928990D+00
  0.5799635300D+01  0.3585208493D+00
 s    3  1.00
  0.1553961600D+02 -0.1107775519D+00
  0.3599933600D+01 -0.1480262626D+00
  0.1013761800D+01  0.1130767020D+01
 s    1  1.00
  0.2700058200D+00  0.1000000000D+01
 p    3  1.00
  0.1553961600D+02  0.7087426737D-01
  0.3599933600D+01  0.3397528370D+00
  0.1013761800D+01  0.7271585736D+00
 p    1  1.00
  0.2700058200D+00  0.1000000000D+01
  
 10 0
 s    3  1.00
  0.1873113700D+02  0.3349460400D-01
  0.2825394400D+01  0.2347269500D+00
  0.6401216900D+00  0.8137573301D+00
 s    1  1.00
  0.1612777600D+00  0.1000000000D+01
  
 11 0
 s    3  1.00
  0.1873113700D+02  0.3349460400D-01
  0.2825394400D+01  0.2347269500D+00
  0.6401216900D+00  0.8137573301D+00
 s    1  1.00
  0.1612777600D+00  0.1000000000D+01
  
 12 0
 s    3  1.00
  0.1873113700D+02  0.3349460400D-01
  0.2825394400D+01  0.2347269500D+00
  0.6401216900D+00  0.8137573301D+00
 s    1  1.00
  0.1612777600D+00  0.1000000000D+01
  
 13 0
 s    3  1.00
  0.1873113700D+02  0.3349460400D-01
  0.2825394400D+01  0.2347269500D+00
  0.6401216900D+00  0.8137573301D+00
 s    1  1.00
  0.1612777600D+00  0.1000000000D+01
  
 14 0
 s    3  1.00
  0.1873113700D+02  0.3349460400D-01
  0.2825394400D+01  0.2347269500D+00
  0.6401216900D+00  0.8137573301D+00
 s    1  1.00
  0.1612777600D+00  0.1000000000D+01
  
 15 0
 s    3  1.00
  0.1873113700D+02  0.3349460400D-01
  0.2825394400D+01  0.2347269500D+00
  0.6401216900D+00  0.8137573301D+00
 s    1  1.00
  0.1612777600D+00  0.1000000000D+01
  
 16 0
 s    3  1.00
  0.1873113700D+02  0.3349460400D-01
  0.2825394400D+01  0.2347269500D+00
  0.6401216900D+00  0.8137573301D+00
 s    1  1.00
  0.1612777600D+00  0.1000000000D+01
  
 17 0
 s    3  1.00
  0.1873113700D+02  0.3349460400D-01
  0.2825394400D+01  0.2347269500D+00
  0.6401216900D+00  0.8137573301D+00
 s    1  1.00
  0.1612777600D+00  0.1000000000D+01
  
 18 0
 s    3  1.00
  0.1873113700D+02  0.3349460400D-01
  0.2825394400D+01  0.2347269500D+00
  0.6401216900D+00  0.8137573301D+00
 s    1  1.00
  0.1612777600D+00  0.1000000000D+01
  
 19 0
 s    3  1.00
  0.1873113700D+02  0.3349460400D-01
  0.2825394400D+01  0.2347269500D+00
  0.6401216900D+00  0.8137573301D+00
 s    1  1.00
  0.1612777600D+00  0.1000000000D+01
  
 20 0
 s    3  1.00
  0.1873113700D+02  0.3349460400D-01
  0.2825394400D+01  0.2347269500D+00
  0.6401216900D+00  0.8137573301D+00
 s    1  1.00
  0.1612777600D+00  0.1000000000D+01
  
 21 0
 s    3  1.00
  0.1873113700D+02  0.3349460400D-01
  0.2825394400D+01  0.2347269500D+00
  0.6401216900D+00  0.8137573301D+00
 s    1  1.00
  0.1612777600D+00  0.1000000000D+01
  
 22 0
 s    3  1.00
  0.1873113700D+02  0.3349460400D-01
  0.2825394400D+01  0.2347269500D+00
  0.6401216900D+00  0.8137573301D+00
 s    1  1.00
  0.1612777600D+00  0.1000000000D+01
 
 
[MO]
 Sym=      1.1
 Ene=     -20.4515
 Spin= Alpha
 Occup=    2.000000
1 -0.000045936611935
2 -0.000633136396661
3 0.002319979379134
4 -0.000009405205259
5 0.000136673497746
6 0.000108684339522
7 -0.000649852149288
8 -0.001059251043880
9 -0.003231576974074
10 -0.000005631003009
11 -0.000109283721391
12 -0.000988133955144
13 -0.000123662863321
14 -0.000006127039189
15 -0.000022286140870
16 0.000086425662494
17 -0.001279844318525
18 0.001174774010744
19 0.000024270058027
20 0.000225372245286
21 -0.001029582363277
22 0.000086743003085
23 0.000059962878787
24 0.000041991707628
25 -0.000447960687757
26 -0.000794442420971
27 0.000255342946538
28 -0.000019689201631
29 -0.000171485765427
30 0.001159339954055
31 0.000027364717045
32 0.000008644955730
33 -0.000009621192658
34 0.000228663259347
35 -0.000362136916516
36 -0.000299632844033
37 0.000008334294827
38 0.000057497376582
39 -0.000438384814731
40 -0.000022321234262
41 -0.000009511313573
42 0.000000076723325
43 -0.000166419611604
44 -0.000007298921792
45 0.000009023306199
46 0.000002376921740
47 -0.000023769385900
48 -0.000867913205974
49 -0.000050185266379
50 0.000048879234660
51 -0.000030911621588
52 0.000728043833984
53 0.000418025219783
54 0.000013630921214
55 0.000153312029249
56 0.000164447633585
57 0.006104455733207
58 0.000012244249921
59 0.000067576100982
60 -0.000042630658936
61 0.004722877043619
62 -0.000637145110487
63 0.007598581503336
64 0.99586663503263
65 0.023507989048961
66 -0.015787212576938
67 -0.001437356997653
68 0.000355800559909
69 -0.001805404672030
70 0.003020174112330
71 -0.000573598880183
72 0.004021711841060
73 -0.003345482375508
74 -0.000550508720016
75 0.001975995164642
76 0.000064780244636
77 -0.000101138714425
78 -0.000073421122243
79 -0.001053179196258
80 0.000871243122726
81 -0.000151242916947
82 0.000147797495715
83 0.001152533631057
84 0.000021125137145
85 0.000464950480400
86 -0.000031589247953
87 -0.000485368367495
88 0.000095593996819
89 0.000200477985953
90 -0.000020565944725
91 0.000312704204281
92 -0.000058079495277
93 -0.000086006972675
94 -0.000021396185107
95 0.000093150865787
96 0.000004117377782
97 -0.000348667666263
98 0.000155675727150
99 -0.000460332100384
100 0.000106258024447
101 0.000149098626875
102 0.000009913592142
103 0.000020270995348
104 0.000014106367397
105 0.000088459226187
106 0.000033525861739
107 0.000024537010907
 Sym=      2.1
 Ene=     -20.4404
 Spin= Alpha
 Occup=    2.000000
1 -0.000067554016425
2 -0.000717383614036
3 0.003965114628752
4 -0.000283137227174
5 0.000201493130316
6 -0.000026468827247
7 0.002321563902498
8 -0.001075675959923
9 0.002181954937533
10 0.000046827715846
11 0.000415387708176
12 -0.000931076403284
13 0.000060734391442
14 -0.000040706023288
15 0.000078751214830
16 -0.000887213730252
17 0.001014298332300
18 -0.000992763745337
19 -0.000015342376914
20 -0.000054469164536
21 0.001440034269307
22 0.000039899227772
23 0.000109660403729
24 -0.000092775661112
25 0.000239861843891
26 -0.000045827382558
27 -0.000259144471870
28 -0.000000965182556
29 -0.000023063573373
30 -0.000554677628647
31 -0.000073315130356
32 -0.000025122712354
33 -0.000046603454591
34 0.000354585925061
35 0.000452123627562
36 0.000626182450501
37 -0.000007329166625
38 -0.000051103393615
39 0.000584466780776
40 0.000034077443306
41 -0.000001068698503
42 0.000008715368733
43 0.000157712901570
44 0.000228348939056
45 -0.000136894596934
46 0.000018212310236
47 0.000211878574685
48 -0.000141361862397
49 0.000074284895079
50 -0.000052645259920
51 0.000020087682325
52 -0.000965263726199
53 0.000295821050132
54 -0.000118632084751
55 0.000111087250336
56 -0.000082384301981
57 0.004208545974050
58 0.000123589546664
59 -0.000060388199347
60 -0.000035395310217
61 0.001886704826235
62 -0.005048446721888
63 -0.007318209633964
64 0.003313692148427
65 -0.000397105326504
66 0.001906612802823
67 0.000099146914621
68 -0.000069155265570
69 0.000037664057426
70 -0.001077065989533
71 0.001082956700919
72 0.000339287965607
73 0.99588701488328
74 0.023273524439351
75 -0.015021820976308
76 -0.000599365777049
77 0.001308853479882
78 0.001712702024857
79 0.001050171616765
80 -0.002690438092900
81 -0.004086071292387
82 -0.000413404758945
83 -0.000457157665766
84 -0.000019532056608
85 0.000030423324421
86 0.000216580288016
87 0.000190127760577
88 -0.000089669937033
89 -0.000352988837106
90 0.000032343442427
91 0.000060248793860
92 0.000024333589284
93 0.000098372645194
94 -0.000065065969522
95 -0.000303664383985
96 -0.000054270473725
97 -0.000130242412837
98 -0.000005965474889
99 -0.000605173224280
100 -0.000057218879030
101 0.000034493136727
102 -0.000032874470338
103 -0.000082114279212
104 -0.000010388036945
105 0.000125443605866
106 -0.000016440137885
107 -0.000104351035639
 Sym=      3.1
 Ene=     -15.7494
 Spin= Alpha
 Occup=    2.000000
1 -0.000009791919605
2 -0.000515280847617
3 0.004285399626458
4 0.000014313926969
5 0.000128662225888
6 -0.000092527686650
7 0.000106417190770
8 0.002029140680205
9 -0.001626459312444
10 -0.000002423903182
11 -0.000158844752206
12 -0.000521619041527
13 -0.000055010426539
14 -0.000177177787688
15 0.000092503549685
16 -0.000390806020477
17 0.000769440304345
18 -0.000653447265881
19 -0.000037672528991
20 -0.000334942994372
21 0.001409778507064
22 -0.000029849810701
23 -0.000028012317297
24 0.000001775227764
25 0.000500117075151
26 0.000590962188959
27 -0.000421128948379
28 0.000010987909196
29 0.000026390329188
30 -0.000293355919343
31 -0.000036283110317
32 -0.000009548057612
33 0.000081878359440
34 -0.000469866958703
35 0.000079725104682
36 -0.000281273956564
37 0.000002635209767
38 0.000017596130524
39 -0.000202934340420
40 0.000006052102938
41 -0.000024576300432
42 -0.000008733353034
43 -0.000128570367177
44 -0.000016750265640
45 0.000088515204679
46 0.99605659742646
47 0.024484112471460
48 -0.014811908821847
49 -0.000027101422427
50 0.000151510518592
51 -0.000037818423418
52 0.000285371997000
53 0.000937901533407
54 -0.001095990074059
55 -0.000024840971447
56 -0.000345240003946
57 0.000524552436360
58 0.000119731597604
59 -0.000162081788730
60 0.000057325695701
61 -0.000568221237646
62 0.000041134103484
63 -0.000626972720755
64 -0.000005747014032
65 -0.000076270464425
66 0.000504972894505
67 0.000007147837536
68 0.000032856606467
69 -0.000016657736515
70 -0.000112031411540
71 -0.000064573815916
72 -0.000030722729474
73 0.000008838864002
74 0.000156087850661
75 -0.000650555096257
76 -0.000029833852855
77 0.000007240671765
78 -0.000009080569190
79 0.000266028162908
80 -0.000241080090594
81 -0.000028922481279
82 -0.000240143797942
83 -0.000296303550823
84 0.000016002423710
85 -0.000321833566996
86 0.000362845206145
87 0.001811227378081
88 0.000289976825218
89 0.002193816996937
90 0.000346733813404
91 0.001820602230776
92 0.000021810143843
93 -0.000455880287459
94 0.000103753254091
95 -0.000014331399275
96 -0.000041910786243
97 0.000223034441197
98 -0.000107322717651
99 -0.000122382797638
100 -0.000131963874556
101 0.000070010846736
102 -0.000004243585118
103 -0.000040670322271
104 0.000010845041460
105 -0.000067004751019
106 0.000012879414817
107 0.000073332964816
 Sym=      4.1
 Ene=     -11.3127
 Spin= Alpha
 Occup=    2.000000
1 0.99303697781852
2 0.027357301921200
3 -0.025287987126418
4 -0.000115626293809
5 0.000758753792766
6 -0.000893984995915
7 0.000673624023272
8 0.001082610487680
9 0.002956372640889
10 0.005947022303862
11 -0.000286719743295
12 0.005964867901006
13 0.000091684012867
14 0.000013007770029
15 0.000070085297896
16 0.003282063909274
17 0.002174394130253
18 -0.000941216791787
19 -0.000080957919028
20 -0.000388204304449
21 0.001462017700294
22 -0.000070429698465
23 -0.000065345116525
24 -0.000028667482486
25 0.000157194949063
26 0.000625565916290
27 0.000023610142479
28 -0.000124333269749
29 -0.000209115953409
30 -0.000281145976414
31 -0.000145640119894
32 -0.000065299108275
33 -0.000066610091715
34 0.000811610498729
35 0.000858108754327
36 0.000834296434898
37 -0.000058577033667
38 -0.000373466196916
39 0.001805099177991
40 -0.000008222711750
41 0.000031843287063
42 0.000011698114766
43 0.000947293024687
44 -0.000011464360913
45 -0.000077963468633
46 -0.000102298488763
47 -0.000189444470902
48 0.004161242655952
49 -0.000012259878709
50 0.000003457587386
51 -0.000058045937989
52 -0.000328896679793
53 -0.001801583802967
54 0.001545781380279
55 0.081635125421740
56 0.001469751142121
57 0.004469912536390
58 -0.000188445016598
59 0.000100208287895
60 0.000008392077210
61 -0.002893035474927
62 0.002115641356884
63 -0.001183888374297
64 -0.000041601918848
65 -0.000344577578232
66 0.001225999347023
67 0.000018818812698
68 0.000005731541317
69 0.000021756273060
70 -0.000019047017449
71 -0.000270174329866
72 -0.000374034285658
73 -0.000022383572078
74 -0.000227330190540
75 0.000037822999769
76 0.000052915635919
77 -0.000066408294468
78 -0.000030904420578
79 0.000140207824139
80 -0.000068107938353
81 0.000142217258796
82 0.000279308512972
83 0.003010272079437
84 -0.000312489639735
85 -0.000265103007507
86 -0.000044673243471
87 0.000340568363180
88 -0.000033572913484
89 0.000344052671353
90 -0.000045842719985
91 0.000426699748410
92 0.000008430961059
93 -0.000291243621303
94 -0.000125035728101
95 -0.000634874925471
96 -0.000006884287686
97 0.000265786251245
98 -0.000084937816771
99 -0.000129258654269
100 -0.000115885364599
101 -0.000468521117685
102 -0.000042206449325
103 0.000204425709971
104 -0.000086394276084
105 -0.000165430812900
106 -0.000144493875451
107 -0.000163941248765
 Sym=      5.1
 Ene=     -11.3089
 Spin= Alpha
 Occup=    2.000000
1 -0.081835523131916
2 -0.002595526461483
3 0.007193313982968
4 -0.000076562540832
5 -0.000093196958217
6 0.000094854835786
7 0.002599156260643
8 -0.001971301757083
9 0.000106870420472
10 -0.000660436868312
11 -0.000294521881899
12 -0.000745644889376
13 -0.000269727565505
14 0.000172476883627
15 0.000006603843835
16 0.001757268380301
17 -0.001703716087706
18 -0.000450535366382
19 -0.000044593195211
20 -0.000056084840885
21 -0.000942507773406
22 -0.000207778771930
23 -0.000153877552933
24 0.000034013409119
25 0.000155496385013
26 0.000978009660002
27 0.000396945349674