[Molden Format]
[Molpro variables]
_NUMVAR=  845.0000000000000    
_AVOGAD= 0.6022136736000000E+24
_BOLTZ= 0.1380658000000000E-22
_CLIGHT=  29979245800.00000    
_EV2006= 0.3674930886769165E-01
_EV= 0.3674932534394180E-01
_ENULL= 0.8854187817000000E-11
_KJOULE= 0.3808798324128737E-03
_KJOULE/MOL= 0.3808798324128737E-03
_CM= 0.4556335267302901E-05
_CM-1= 0.4556335267302901E-05
_DEB2SI= 0.3335641000000000E-29
_AMU2AU=  1822.888390000000    
_KCAL= 0.1593601117815568E-02
_KCAL/MOL= 0.1593601117815568E-02
_KELVIN2006= 0.3166828861084835E-05
_KELVIN= 0.3166814820820034E-05
_JOULE= 0.4359748200000000E-17
_HERTZ2006= 0.1519829850815779E-15
_HERTZ= 0.1519829846011223E-15
_HZ2006= 0.1519829850815779E-15
_HZ= 0.1519829846011223E-15
_JPCAL=  4.184000000000000    
_PLANCK= 0.6626075540000000E-33
_TOA2006= 0.5291772490000000    
_TOA= 0.5291772090000000    
_TOANG2006= 0.5291772490000000    
_TOANG= 0.5291772090000000    
_TORAD= 0.1745329251994330E-01
_TOCM=  219474.6306700000    
_TODEBYE=  2.541580000000000    
_TOEV2006=  27.21139610000000    
_TOE= 0.4803242000000000E-09
_TOEV=  27.21138390000000    
_TOHERTZ2006=  6579683899900000.    
_TOHERTZ=  6579683920700000.    
_TOHZ2006=  6579683899900000.    
_TOHZ=  6579683920700000.    
_TOK2006=  315773.3000000000    
_TOK=  315774.7000000000    
_TOKCAL=  627.5096000000000    
_TOKELVIN2006=  315773.3000000000    
_TOKELVIN=  315774.7000000000    
_TOKJ=  2625.500000000000    
_TOKJOULE=  2625.500000000000    
_TOKG= 0.1660565586000000E-26
_ANG2006=  1.889725988578923    
_ANG=  1.889726131421507    
_ANGSTROM2006=  1.889725988578923    
_ANGSTROM=  1.889726131421507    
_RPAREF=  0.000000000000000    
_RPADISS=  0.000000000000000    
_IGNORE_UNDEF=  2.000000000000000    
_STRICTCHECK=  0.000000000000000    
_SEW_ONEEL=  0.000000000000000    
_CPPDONE=FALSE
_DKROLL_DONE=  0.000000000000000    
_FOCKDONE=TRUE
_GRADONE=FALSE
_HESSDONE=FALSE
_INTDONE=TRUE
_SCFDONE=TRUE
_MODUL_BLOCK=FALSE
_MODUL_CUDA=FALSE
_MODUL_SLATER=FALSE
_MODUL_MRCC=FALSE
_MODUL_NBO6=FALSE
_MODUL_NECI=TRUE
_MODUL_AIMS=TRUE
_MRCC_EXEC=
_FITC_AO_SAVED=FALSE
_FITC_MO_SAVED=FALSE
_SHARED_FS=TRUE
_LSTYP=SEWARD
_INTYP=INTS
_GEOMTYP=ZMAT
_GRADTYP=ALASKA
_DIRECT=FALSE
_DKHO= -1.000000000000000    
_SYNCM=  0.000000000000000    
_BASIS=$BSET
_ZORIENT=  1.000000000000000    
_NELEC=  72.00000000000000    
!SPIN=  0.000000000000000    
_QSDSTEP=  0.000000000000000    
_QSDIRC=  0.000000000000000    
_PROGRAM=HF-SCF
_CPUSTEP=  1.660000000000000    
_SYSSTEP= 0.5000000000000002E-01
_WALLSTEP=  1.720000000000000    
!DFSCF=  0.000000000000000    
!SCSGRD=  0.000000000000000    
_BASINP=  610.0000000000000    
_CPUTOT=  5.040000000000000    
_CPUSORT= 0.5300000000000002    
_SYSSORT= 0.1900000000000000    
_WALLSORT= 0.7200000025331974    
_DFTEXFAC=  1.000000000000000    
_DMX= -3.761797959076958    
_DMY=  3.304007300318913    
_DMZ= -1.290470856450995    
_DMX_SCF= -3.761797959076958    
_DMY_SCF=  3.304007300318913    
_DMZ_SCF= -1.290470856450995    
_EHOMO=-0.3162682886263545    
_ELUMO= 0.1118038048779333    
_ENERGY= -438.6832766551790    
_ENUC=  484.9272881822193    
_GRADEXFAC=  9999.000000000000    
_GRADMETHOD=  1.000000000000000    
_NMRMETHOD=  0.000000000000000    
!GRID_FREEZE= -1.000000000000000    
_ITERATIONS=  11.00000000000000    
_LASTNELEC=  72.00000000000000    
_LASTSPIN=  0.000000000000000    
_LASTSYM=  1.000000000000000    
_MPP_PROG=  0.000000000000000    
_NPROC_MPP=  1.000000000000000    
_NPROC_MPPX=  1.000000000000000    
_NPROC_SMP=  1.000000000000000    
_NUMSTEP=  0.000000000000000    
_ORBITAL=  2100.200000000000    
_PI=  3.141592653589793    
_SEIG_MIN= 0.3713457876850116E-02
_SEWPROP=TRUE
_STATUS=  1.000000000000000    
_SYSTOT= 0.2700000000000000    
_VERSION=  2012001.000000000    
_WALLTOT=  5.320000000000000    
_DATE=23-Sep-15
_LASTORB=RHF
_MACHINE=Linux-3.2.0-90-generic/sce-chem-c01105(x86_64) 64 bit serial version
_OUTPUT=/home/s1267651/phd_mini_19Sept2015/protein/molpro2/leucine_6-31g_scf.xml
_PGROUP=C1
_TIME=18:00:11
_LIBMOL=/usr/local/molpro/molprop_2012_1_Linux_x86_64_i8/lib/
!VIBCNT=  0.000000000000000    
!RGHFCNT=  0.000000000000000    
!SURFREC=  0.000000000000000    
!POLYREC=  0.000000000000000    
!DIPREC=  0.000000000000000    
!VSCFREC=  0.000000000000000    
!VCIREC=  0.000000000000000    
!PVCIREC=  0.000000000000000    
!VMP2REC=  0.000000000000000    
!VMCSCFREC=  0.000000000000000    
!VMRCIREC=  0.000000000000000    
!VIBINFO=  0.000000000000000    
!GAREC=  0.000000000000000    
!SCFORB=  21002.00000000000    
!NEWMOL= -1.000000000000000    
!NEWSYM= -1.000000000000000    
_SLFILES=slscratch
_NGSSTO=  9.000000000000000    
_SIN=SIN
_COS=COS
_TAN=TAN
_ACOS=ACOS
_ASIN=ASIN
_ATAN=ATAN
_COSH=COSH
_SINH=SINH
_TANH=TANH
_ABS=ABS
_MOD=MOD
_ERF=ERF
_REFC=REFC
_ERFC=ERFC
_HYPOT=HYPOT
_J0=J0
_J1=J1
_JN=JN
_GAMMA=GAMMA
_LGAMMA=LGAMMA
_Y0=Y0
_Y1=Y1
_YN=YN
_EXP=EXP
_LOG=LOG
_LOG10=LOG10
_SQRT=SQRT
_INT=INT
_NINT=NINT
_MAX=MAX
_MIN=MIN
_COSMO=  0.000000000000000    
_COSMOIT=  0.000000000000000    
_COSMOES=  0.000000000000000    
_COSMOEDS=  0.000000000000000    
_COSMOEC=  0.000000000000000    
_COSMOEDCORR=  0.000000000000000    
_FEPSI=  1.000000000000000    
_SL_IsMM=  0.000000000000000    
_SL_NSYM=  1.000000000000000    
_SL_System_BitSw=  0.000000000000000    
_SL_Unique_atoms=  0.000000000000000    
_SL_GRAD=  0.000000000000000    
_SL_MAXUPD_Hess=  5.000000000000000    
_SL_N_PRINT_COD=  5.000000000000000    
_SL_PRINT_CODES=  0.000000000000000    
_SL_BasType=  0.000000000000000    
_SL_Energy_Pred=  0.000000000000000    
_SL_New_Coords=  0.000000000000000    
_SL_Total_Nuclea=  0.000000000000000    
_SL_Highest_Mltp=  0.000000000000000    
_SL_Ref_Geom=  0.000000000000000    
_SL_Symmetry_ope=  1.000000000000000    
_SL_agrad=  0.000000000000000    
_SL_GrdMax=  0.000000000000000    
_SL_GrdNorm=  0.000000000000000    
_SL_GrdRMS=  0.000000000000000    
_SL_Hss_Q=  0.000000000000000    
_SL_Hss_X=  0.000000000000000    
_SL_BMxOld=  0.000000000000000    
_SL_KtB=  0.000000000000000    
!LATTICE= -1.000000000000000    
!NEWLATTICE=  0.000000000000000    
!LATGRAD_VAR=FALSE
!SEW_LATTICE=  1.000000000000000    
!LOCAL=  0.000000000000000    
!SAVEDOM= -1.000000000000000    
!RESTDOM= -1.000000000000000    
!SAVEDOM_HF= -1.000000000000000    
!RESTDOM_HF= -1.000000000000000    
!HESSREC=  0.000000000000000    
!FREQREC=  0.000000000000000    
!NMODREC=  0.000000000000000    
!GTASKS=  0.000000000000000    
!HTASKS=  0.000000000000000    
!THRCHG= 0.1000000000000000    
!DEBUG= -1.000000000000000    
!CFIT_CPHF=  0.000000000000000    
!RDOMAUX_CPHF=  3.000000000000000    
!THRAO_CPHF= 0.1000000000000000E-09
!THRMO_CPHF= 0.1000000000000000E-08
!THROV_CPHF= 0.1000000000000000E-11
!THRSW_CPHF= 0.1000000000000000E-09
!THRPROD_CPHF= 0.1000000000000000E-08
!THRAOPR_CPHF= 0.1000000000000000E-11
!CFIT_SCFGRD=  0.000000000000000    
!RDOMAUX_SCFGRD=  5.000000000000000    
!THRAO_SCFGRD= 0.1000000000000000E-09
!THRMO_SCFGRD= 0.1000000000000000E-08
!THROV_SCFGRD= 0.1000000000000000E-11
!THRSW_SCFGRD= 0.1000000000000000E-09
!THRPROD_SCFGRD= 0.1000000000000000E-08
!THRAOPR_SCFGRD= 0.1000000000000000E-11
!LOCFIT_SCF=  0.000000000000000    
!LOCFIT_MP2= -1.000000000000000    
_RIDOM=  0.000000000000000    
!CC2_METHOD=  0.000000000000000    
_BASIS2006=FALSE
_SVDDEL= -1.000000000000000    
_SVDDELA= -1.000000000000000    
_SVDDELP= -1.000000000000000    
_SVDDELF= -1.000000000000000    
_SVDDELS= -1.000000000000000    
_SVDDEL_ABS= -1.000000000000000    
_SVDDELA_ABS= -1.000000000000000    
_SVDDELP_ABS= -1.000000000000000    
_SVDDELF_ABS= -1.000000000000000    
_SVDDELS_ABS= -1.000000000000000    
_MAXBASIS=  0.000000000000000    
!OPT_CONICAL=  0.000000000000000    
!CLEARSP_JGRID=  0.000000000000000    
_4EXT_NDISKS=  1.000000000000000    
!ZMP=  0.000000000000000    
_MAXIT_ZMP=  500.0000000000000    
_MAXDIS_ZMP=  100.0000000000000    
_ACCU_ZMP=  14.00000000000000    
_SHIFTA_ZMP= -100.0000000000000    
!EMBEDFLAG=  1.000000000000000    
!EMBED=FALSE
!EMBED_F12=FALSE
!EMBEDNUC=  0.000000000000000    
_EMBEDENERGY=  0.000000000000000    
_KSPACETIME=  0.000000000000000    
_RSPACETIME=  0.000000000000000    
!EMBED_DFC=FALSE
!NUM_VOIDS=  0.000000000000000    
_IBODY=  0.000000000000000    
_EMBE_TOTAL=  0.000000000000000    
_EMBE_HF=  0.000000000000000    
_EMBE_CORR=  0.000000000000000    
!EDFT=  0.000000000000000    
_IFASTLATGRAD=  0.000000000000000    
_SINDEX=  0.000000000000000    
TITLE=LEUCINE
BSET=6-31G
GX1=  1.108000000000000    
GY1= 0.3440000000000000    
GZ1=-0.1710000000000000    
GX2=-0.4900000000000000E-01
GY2=-0.6270000000000003    
GZ2=-0.4020000000000000    
GX3= -1.311000000000000    
GY3=-0.8500000000000001E-01
GZ3= 0.2680000000000000    
GX4= -2.208000000000000    
GY4= -1.249000000000001    
GZ4= 0.6810000000000000    
GX5= -2.062000000000000    
GY5= 0.8129999999999999    
GZ5=-0.7110000000000000    
GX6=  1.133000000000000    
GY6=  1.359000000000000    
GZ6= -1.268000000000000    
GX7=  2.411000000000000    
GY7=-0.4190000000000001    
GZ7=-0.1600000000000000    
GX8=  3.121000000000001    
GY8=-0.3980000000000000    
GZ8= 0.8310000000000000    
GX9=  2.766000000000001    
GY9= -1.082000000000000    
GZ9= -1.183000000000000    
GX10= 0.9740000000000000    
GY10= 0.8460000000000000    
GZ10= 0.7850000000000000    
GX11= 0.2000000000000000    
GY11= -1.597000000000000    
GZ11= 0.2400000000000000E-01
GX12=-0.2240000000000000    
GY12=-0.7350000000000002    
GZ12= -1.471000000000000    
GX13=  2.065000000000000    
GY13=  1.809000000000000    
GZ13= -1.301000000000000    
GX14= 0.4090000000000000    
GY14=  2.077000000000000    
GZ14= -1.091000000000000    
GX15= 0.9429999999999999    
GY15= 0.8940000000000000    
GZ15= -2.173000000000000    
GX16= -1.035000000000000    
GY16= 0.4900000000000000    
GZ16=  1.149000000000000    
GX17= -3.106000000000000    
GY17=-0.8630000000000000    
GZ17=  1.158000000000000    
GX18= -1.672000000000000    
GY18= -1.889000000000000    
GZ18=  1.379000000000000    
GX19= -2.484000000000000    
GY19= -1.824000000000000    
GZ19=-0.2000000000000000    
GX20= -3.106000000000000    
GY20= 0.8810000000000000    
GZ20=-0.4130000000000000    
GX21= -1.617000000000000    
GY21=  1.806000000000000    
GZ21=-0.7060000000000000    
GX22= -1.997000000000000    
GY22= 0.3910000000000000    
GZ22= -1.712000000000000    
STR=../input/LEUCINE_6-31G_scf.mld
[Atoms] Angs
C     1    6         1.1080000000        0.3440000000       -0.1710000000
C     2    6        -0.0490000000       -0.6270000000       -0.4020000000
C     3    6        -1.3110000000       -0.0850000000        0.2680000000
C     4    6        -2.2080000000       -1.2490000000        0.6810000000
C     5    6        -2.0620000000        0.8130000000       -0.7110000000
N     6    7         1.1330000000        1.3590000000       -1.2680000000
C     7    6         2.4110000000       -0.4190000000       -0.1600000000
O     8    8         3.1210000000       -0.3980000000        0.8310000000
O     9    8         2.7660000000       -1.0820000000       -1.1830000000
H    10    1         0.9740000000        0.8460000000        0.7850000000
H    11    1         0.2000000000       -1.5970000000        0.0240000000
H    12    1        -0.2240000000       -0.7350000000       -1.4710000000
H    13    1         2.0650000000        1.8090000000       -1.3010000000
H    14    1         0.4090000000        2.0770000000       -1.0910000000
H    15    1         0.9430000000        0.8940000000       -2.1730000000
H    16    1        -1.0350000000        0.4900000000        1.1490000000
H    17    1        -3.1060000000       -0.8630000000        1.1580000000
H    18    1        -1.6720000000       -1.8890000000        1.3790000000
H    19    1        -2.4840000000       -1.8240000000       -0.2000000000
H    20    1        -3.1060000000        0.8810000000       -0.4130000000
H    21    1        -1.6170000000        1.8060000000       -0.7060000000
H    22    1        -1.9970000000        0.3910000000       -1.7120000000
[GTO]
  1 0
 s    6  1.00
  0.3047524900D+04  0.1834737091D-02
  0.4573695200D+03  0.1403732293D-01
  0.1039486800D+03  0.6884262165D-01
  0.2921015500D+02  0.2321844388D+00
  0.9286663000D+01  0.4679413476D+00
  0.3163927000D+01  0.3623119882D+00
 s    3  1.00
  0.7868272300D+01 -0.1193324245D+00
  0.1881288500D+01 -0.1608541561D+00
  0.5442492600D+00  0.1143456443D+01
 s    1  1.00
  0.1687144800D+00  0.1000000000D+01
 p    3  1.00
  0.7868272300D+01  0.6899906693D-01
  0.1881288500D+01  0.3164239597D+00
  0.5442492600D+00  0.7443082892D+00
 p    1  1.00
  0.1687144800D+00  0.1000000000D+01
  
  2 0
 s    6  1.00
  0.3047524900D+04  0.1834737091D-02
  0.4573695200D+03  0.1403732293D-01
  0.1039486800D+03  0.6884262165D-01
  0.2921015500D+02  0.2321844388D+00
  0.9286663000D+01  0.4679413476D+00
  0.3163927000D+01  0.3623119882D+00
 s    3  1.00
  0.7868272300D+01 -0.1193324245D+00
  0.1881288500D+01 -0.1608541561D+00
  0.5442492600D+00  0.1143456443D+01
 s    1  1.00
  0.1687144800D+00  0.1000000000D+01
 p    3  1.00
  0.7868272300D+01  0.6899906693D-01
  0.1881288500D+01  0.3164239597D+00
  0.5442492600D+00  0.7443082892D+00
 p    1  1.00
  0.1687144800D+00  0.1000000000D+01
  
  3 0
 s    6  1.00
  0.3047524900D+04  0.1834737091D-02
  0.4573695200D+03  0.1403732293D-01
  0.1039486800D+03  0.6884262165D-01
  0.2921015500D+02  0.2321844388D+00
  0.9286663000D+01  0.4679413476D+00
  0.3163927000D+01  0.3623119882D+00
 s    3  1.00
  0.7868272300D+01 -0.1193324245D+00
  0.1881288500D+01 -0.1608541561D+00
  0.5442492600D+00  0.1143456443D+01
 s    1  1.00
  0.1687144800D+00  0.1000000000D+01
 p    3  1.00
  0.7868272300D+01  0.6899906693D-01
  0.1881288500D+01  0.3164239597D+00
  0.5442492600D+00  0.7443082892D+00
 p    1  1.00
  0.1687144800D+00  0.1000000000D+01
  
  4 0
 s    6  1.00
  0.3047524900D+04  0.1834737091D-02
  0.4573695200D+03  0.1403732293D-01
  0.1039486800D+03  0.6884262165D-01
  0.2921015500D+02  0.2321844388D+00
  0.9286663000D+01  0.4679413476D+00
  0.3163927000D+01  0.3623119882D+00
 s    3  1.00
  0.7868272300D+01 -0.1193324245D+00
  0.1881288500D+01 -0.1608541561D+00
  0.5442492600D+00  0.1143456443D+01
 s    1  1.00
  0.1687144800D+00  0.1000000000D+01
 p    3  1.00
  0.7868272300D+01  0.6899906693D-01
  0.1881288500D+01  0.3164239597D+00
  0.5442492600D+00  0.7443082892D+00
 p    1  1.00
  0.1687144800D+00  0.1000000000D+01
  
  5 0
 s    6  1.00
  0.3047524900D+04  0.1834737091D-02
  0.4573695200D+03  0.1403732293D-01
  0.1039486800D+03  0.6884262165D-01
  0.2921015500D+02  0.2321844388D+00
  0.9286663000D+01  0.4679413476D+00
  0.3163927000D+01  0.3623119882D+00
 s    3  1.00
  0.7868272300D+01 -0.1193324245D+00
  0.1881288500D+01 -0.1608541561D+00
  0.5442492600D+00  0.1143456443D+01
 s    1  1.00
  0.1687144800D+00  0.1000000000D+01
 p    3  1.00
  0.7868272300D+01  0.6899906693D-01
  0.1881288500D+01  0.3164239597D+00
  0.5442492600D+00  0.7443082892D+00
 p    1  1.00
  0.1687144800D+00  0.1000000000D+01
  
  6 0
 s    6  1.00
  0.4173511500D+04  0.1834772199D-02
  0.6274579100D+03  0.1399462699D-01
  0.1429020900D+03  0.6858655195D-01
  0.4023432900D+02  0.2322408698D+00
  0.1282021300D+02  0.4690699496D+00
  0.4390437000D+01  0.3604551997D+00
 s    3  1.00
  0.1162636200D+02 -0.1149611854D+00
  0.2716279800D+01 -0.1691174879D+00
  0.7722184000D+00  0.1145851954D+01
 s    1  1.00
  0.2120315000D+00  0.1000000000D+01
 p    3  1.00
  0.1162636200D+02  0.6757974372D-01
  0.2716279800D+01  0.3239072986D+00
  0.7722184000D+00  0.7408951369D+00
 p    1  1.00
  0.2120315000D+00  0.1000000000D+01
  
  7 0
 s    6  1.00
  0.3047524900D+04  0.1834737091D-02
  0.4573695200D+03  0.1403732293D-01
  0.1039486800D+03  0.6884262165D-01
  0.2921015500D+02  0.2321844388D+00
  0.9286663000D+01  0.4679413476D+00
  0.3163927000D+01  0.3623119882D+00
 s    3  1.00
  0.7868272300D+01 -0.1193324245D+00
  0.1881288500D+01 -0.1608541561D+00
  0.5442492600D+00  0.1143456443D+01
 s    1  1.00
  0.1687144800D+00  0.1000000000D+01
 p    3  1.00
  0.7868272300D+01  0.6899906693D-01
  0.1881288500D+01  0.3164239597D+00
  0.5442492600D+00  0.7443082892D+00
 p    1  1.00
  0.1687144800D+00  0.1000000000D+01
  
  8 0
 s    6  1.00
  0.5484671700D+04  0.1831074396D-02
  0.8252349500D+03  0.1395017197D-01
  0.1880469600D+03  0.6844507786D-01
  0.5296450000D+02  0.2327143395D+00
  0.1689757000D+02  0.4701928990D+00
  0.5799635300D+01  0.3585208493D+00
 s    3  1.00
  0.1553961600D+02 -0.1107775519D+00
  0.3599933600D+01 -0.1480262626D+00
  0.1013761800D+01  0.1130767020D+01
 s    1  1.00
  0.2700058200D+00  0.1000000000D+01
 p    3  1.00
  0.1553961600D+02  0.7087426737D-01
  0.3599933600D+01  0.3397528370D+00
  0.1013761800D+01  0.7271585736D+00
 p    1  1.00
  0.2700058200D+00  0.1000000000D+01
  
  9 0
 s    6  1.00
  0.5484671700D+04  0.1831074396D-02
  0.8252349500D+03  0.1395017197D-01
  0.1880469600D+03  0.6844507786D-01
  0.5296450000D+02  0.2327143395D+00
  0.1689757000D+02  0.4701928990D+00
  0.5799635300D+01  0.3585208493D+00
 s    3  1.00
  0.1553961600D+02 -0.1107775519D+00
  0.3599933600D+01 -0.1480262626D+00
  0.1013761800D+01  0.1130767020D+01
 s    1  1.00
  0.2700058200D+00  0.1000000000D+01
 p    3  1.00
  0.1553961600D+02  0.7087426737D-01
  0.3599933600D+01  0.3397528370D+00
  0.1013761800D+01  0.7271585736D+00
 p    1  1.00
  0.2700058200D+00  0.1000000000D+01
  
 10 0
 s    3  1.00
  0.1873113700D+02  0.3349460400D-01
  0.2825394400D+01  0.2347269500D+00
  0.6401216900D+00  0.8137573301D+00
 s    1  1.00
  0.1612777600D+00  0.1000000000D+01
  
 11 0
 s    3  1.00
  0.1873113700D+02  0.3349460400D-01
  0.2825394400D+01  0.2347269500D+00
  0.6401216900D+00  0.8137573301D+00
 s    1  1.00
  0.1612777600D+00  0.1000000000D+01
  
 12 0
 s    3  1.00
  0.1873113700D+02  0.3349460400D-01
  0.2825394400D+01  0.2347269500D+00
  0.6401216900D+00  0.8137573301D+00
 s    1  1.00
  0.1612777600D+00  0.1000000000D+01
  
 13 0
 s    3  1.00
  0.1873113700D+02  0.3349460400D-01
  0.2825394400D+01  0.2347269500D+00
  0.6401216900D+00  0.8137573301D+00
 s    1  1.00
  0.1612777600D+00  0.1000000000D+01
  
 14 0
 s    3  1.00
  0.1873113700D+02  0.3349460400D-01
  0.2825394400D+01  0.2347269500D+00
  0.6401216900D+00  0.8137573301D+00
 s    1  1.00
  0.1612777600D+00  0.1000000000D+01
  
 15 0
 s    3  1.00
  0.1873113700D+02  0.3349460400D-01
  0.2825394400D+01  0.2347269500D+00
  0.6401216900D+00  0.8137573301D+00
 s    1  1.00
  0.1612777600D+00  0.1000000000D+01
  
 16 0
 s    3  1.00
  0.1873113700D+02  0.3349460400D-01
  0.2825394400D+01  0.2347269500D+00
  0.6401216900D+00  0.8137573301D+00
 s    1  1.00
  0.1612777600D+00  0.1000000000D+01
  
 17 0
 s    3  1.00
  0.1873113700D+02  0.3349460400D-01
  0.2825394400D+01  0.2347269500D+00
  0.6401216900D+00  0.8137573301D+00
 s    1  1.00
  0.1612777600D+00  0.1000000000D+01
  
 18 0
 s    3  1.00
  0.1873113700D+02  0.3349460400D-01
  0.2825394400D+01  0.2347269500D+00
  0.6401216900D+00  0.8137573301D+00
 s    1  1.00
  0.1612777600D+00  0.1000000000D+01
  
 19 0
 s    3  1.00
  0.1873113700D+02  0.3349460400D-01
  0.2825394400D+01  0.2347269500D+00
  0.6401216900D+00  0.8137573301D+00
 s    1  1.00
  0.1612777600D+00  0.1000000000D+01
  
 20 0
 s    3  1.00
  0.1873113700D+02  0.3349460400D-01
  0.2825394400D+01  0.2347269500D+00
  0.6401216900D+00  0.8137573301D+00
 s    1  1.00
  0.1612777600D+00  0.1000000000D+01
  
 21 0
 s    3  1.00
  0.1873113700D+02  0.3349460400D-01
  0.2825394400D+01  0.2347269500D+00
  0.6401216900D+00  0.8137573301D+00
 s    1  1.00
  0.1612777600D+00  0.1000000000D+01
  
 22 0
 s    3  1.00
  0.1873113700D+02  0.3349460400D-01
  0.2825394400D+01  0.2347269500D+00
  0.6401216900D+00  0.8137573301D+00
 s    1  1.00
  0.1612777600D+00  0.1000000000D+01
 
 
[MO]
 Sym=      1.1
 Ene=     -20.4490
 Spin= Alpha
 Occup=    2.000000
1 -0.000048205184034
2 -0.000594288269015
3 0.002859482340627
4 -0.000070382704414
5 0.000077167787684
6 0.000102804827679
7 -0.000634772215937
8 -0.001174259875562
9 -0.002753482407672
10 0.000018915003797
11 0.000113784115125
12 -0.001920598247763
13 -0.000091208736796
14 0.000034569108479
15 0.000090362421795
16 0.000154421203290
17 -0.001405031343125
18 -0.000239916754901
19 -0.000026964273178
20 -0.000238474041246
21 0.001397899466438
22 0.000002551231389
23 -0.000009166762796
24 -0.000025052511190
25 0.000651542816473
26 -0.000115093647912
27 -0.000091428222802
28 0.000007915750207
29 0.000063635625939
30 -0.000284583541694
31 -0.000006245192841
32 -0.000013651576905
33 -0.000000309032236
34 -0.000201070941087
35 0.000055932846635
36 0.000027400333170
37 -0.000006675707071
38 -0.000090504929501
39 0.000108654255274
40 -0.000050783682366
41 0.000017447697309
42 -0.000009592244780
43 0.000152099457842
44 -0.000027334710454
45 -0.000006239926263
46 0.000002587876662
47 -0.000014442587962
48 -0.000803854904769
49 -0.000062077643843
50 0.000049618934175
51 0.000003208605705
52 0.000683144272615
53 0.000396818517307
54 -0.000228420417673
55 0.000156942441340
56 0.000213760327874
57 0.005857104157501
58 -0.000037766788576
59 0.000020070041915
60 -0.000012780225865
61 0.004656531360551
62 0.000440401061311
63 0.007057688359321
64 0.99586269430637
65 0.023425361174537
66 -0.015311049714158
67 -0.001469960265879
68 0.000078778898581
69 -0.001810064285993
70 0.002937076215439
71 0.000004457889069
72 0.003945524610853
73 -0.002796230728138
74 -0.000525456260472
75 0.001823018535922
76 0.000086090013132
77 -0.000084200178727
78 -0.000070585464940
79 -0.001160940020573
80 0.000608850751434
81 -0.000166279450268
82 0.000097949887710
83 0.000873217034973
84 0.000054442696923
85 -0.000546895505648
86 0.000040389550897
87 -0.000122829731378
88 -0.000017348430990
89 -0.000475215186391
90 0.000087024427468
91 0.000212412755159
92 -0.000040014315791
93 0.000162552220115
94 -0.000072613099819
95 -0.000183437368982
96 -0.000004250473254
97 -0.000024302081711
98 0.000015280346604
99 0.000138677429698
100 0.000031750615750
101 0.000001834846394
102 0.000001791788029
103 0.000116478970929
104 -0.000006922708227
105 -0.000101939958937
106 -0.000034190770075
107 0.000051843356927
 Sym=      2.1
 Ene=     -20.4357
 Spin= Alpha
 Occup=    2.000000
1 -0.000068791926286
2 -0.000762475963461
3 0.003815612215861
4 -0.000261152982220
5 0.000174798664965
6 -0.000004091297149
7 0.002395711919101
8 -0.000716798879626
9 0.001909631218785
10 0.000023021401977
11 0.000146509694733
12 -0.000067952824690
13 0.000024191523679
14 -0.000015633009366
15 0.000052938412749
16 -0.000946943674229
17 0.000649355393695
18 -0.000645122843090
19 0.000006012740838
20 0.000039017463496
21 -0.000548572108444
22 -0.000058175684190
23 -0.000025954488568
24 -0.000026083727117
25 0.000349452454872
26 0.000372264007943
27 0.000553221909583
28 -0.000007697244696
29 -0.000064218787944
30 0.000433680890064
31 -0.000007740142708
32 0.000014153366011
33 -0.000002925714631
34 0.000118234450069
35 0.000100799734852
36 -0.000228055481250
37 0.000000522768964
38 0.000017153729595
39 0.000230407052768
40 0.000018816689106
41 -0.000025346704247
42 0.000001562824450
43 -0.000137601507884
44 -0.000155705008543
45 0.000069280355675
46 0.000016599303320
47 0.000178321626247
48 -0.000159787184559
49 0.000069896680407
50 -0.000028348784980
51 0.000008622948936
52 -0.000904622918236
53 0.000178054488090
54 -0.000040589262698
55 0.000120560394260
56 0.000021485107921
57 0.003796864904353
58 0.000097210874397
59 -0.000057529496032
60 -0.000027529669160
61 0.002740763116013
62 -0.004691245180914
63 -0.006803215931494
64 0.002766172156865
65 -0.000401758060135
66 0.001833028222565
67 0.000111175746303
68 -0.000047849138646
69 0.000046096958209
70 -0.001218961656959
71 0.000861724344196
72 0.000276104924717
73 0.99588378112182
74 0.023193970271247
75 -0.014589091395806
76 -0.000790628511151
77 0.001256550990396
78 0.001674641206530
79 0.001398238949898
80 -0.002560908291365
81 -0.003884519401471
82 -0.000396937471227
83 -0.000267597812585
84 0.000192282796237
85 0.000257371948969
86 -0.000063350796800
87 -0.000208384945636
88 0.000222587641016
89 0.000112852932640
90 -0.000089114783653
91 -0.000209634157055
92 0.000006577893596
93 0.000067376336058
94 -0.000032613102837
95 -0.000360734746805
96 -0.000012086829647
97 0.000042866335413
98 -0.000027611160997
99 0.000058343572573
100 -0.000027311998934
101 -0.000107035442529
102 -0.000018633490843
103 -0.000115485098380
104 -0.000005000135343
105 0.000146583430397
106 0.000019500938709
107 -0.000098531441715
 Sym=      3.1
 Ene=     -15.7528
 Spin= Alpha
 Occup=    2.000000
1 -0.000014800888046
2 -0.000617903079057
3 0.004078617923371
4 0.000041956596968
5 0.000184076299655
6 -0.000140371898340
7 -0.000110310512244
8 0.001883383104217
9 -0.001573942217762
10 -0.000037007806101
11 -0.000462145991122
12 0.001097277941183
13 -0.000047559284226
14 -0.000206508790551
15 0.000032068207731
16 -0.000664573997697
17 0.000734331051804
18 0.000176442215239
19 0.000045051155365
20 0.000382082614926
21 -0.001881160733383
22 0.000000875495105
23 0.000057274532806
24 -0.000001038984422
25 -0.000651138511049
26 -0.000586331611796
27 0.000556772491351
28 0.000005052602714
29 0.000058846453463
30 -0.000308333094646
31 0.000021792508462
32 0.000002319349874
33 -0.000006095351714
34 -0.000156273932294
35 -0.000081391561407
36 0.000001039581167
37 -0.000021542205245
38 -0.000203267210358
39 0.001420583789175
40 0.000018198435482
41 -0.000057699695157
42 0.000031191632367
43 0.000272163287712
44 0.000211369923626
45 0.000213282340139
46 0.99605711930571
47 0.024470056366593
48 -0.014748232760709
49 -0.000072852339785
50 0.000172133826746
51 -0.000050103214178
52 0.000224513940156
53 0.000784619585324
54 -0.001077977023555
55 -0.000023191926274
56 -0.000344434208051
57 0.000427671103390
58 0.000167743877997
59 -0.000108254553099
60 0.000042453506852
61 -0.000609665620616
62 -0.000154788274383
63 -0.000459212551042
64 -0.000005060711045
65 -0.000062972731346
66 0.000438321044358
67 -0.000003638650847
68 0.000031537880683
69 -0.000015302607258
70 -0.000050722500540
71 -0.000063591090510
72 -0.000044682208963
73 0.000007146595539
74 0.000118985155964
75 -0.000505108444015
76 -0.000028991906750
77 -0.000014367898794
78 0.000001484580592
79 0.000281695129358
80 -0.000099924726078
81 -0.000041581124665
82 -0.000270953572712
83 -0.000272077800013
84 0.000005229557675
85 0.000362934936149
86 -0.000082401682782
87 -0.000225724228050
88 0.000344783938958
89 0.001803812809969
90 0.000292261448052
91 0.002309516050166
92 0.000339047238709
93 0.001877231315643
94 0.000131274873670
95 0.000217340881617
96 0.000011620732193
97 -0.000072767445391
98 0.000029654129040
99 -0.000011804609202
100 -0.000006186979394
101 0.000031137290323
102 -0.000073934764739
103 -0.000086245254867
104 -0.000007897635478
105 -0.000815502631740
106 -0.000017730254515
107 -0.000122430776068
 Sym=      4.1
 Ene=     -11.3147
 Spin= Alpha
 Occup=    2.000000
1 0.99568234285995
2 0.027417387200438
3 -0.025833590289038
4 -0.000261866543188
5 0.000716302917919
6 -0.000930104376529
7 0.000374881599569
8 0.001207046514058
9 0.002649606903829
10 0.005147117497670
11 -0.000521010244929
12 0.006596674827800
13 0.000159946965586
14 0.000015547422573
15 0.000012046906823
16 0.002887532554844
17 0.002237417039686
18 -0.000214981696999
19 -0.000226757239937
20 -0.000509101888604
21 0.000825951610888
22 -0.000185296266960
23 -0.000090139779239
24 0.000051933066625
25 0.000662672331486
26 0.001032209446068
27 -0.000312763166671
28 -0.000038861414346
29 -0.000259968668088
30 0.001112711419836
31 -0.000053048203957
32 0.000008415079376
33 0.000036621415501
34 0.000718282215658
35 0.000236493500445
36 -0.000401455022822
37 0.000008447018150
38 0.000121801183351
39 -0.000713146434695
40 -0.000026847285977
41 -0.000010331517287
42 -0.000041220728722
43 -0.000550586216203
44 0.000158640219047
45 -0.000087461552398
46 -0.000107958629353
47 -0.000273468506655
48 0.004319818129463
49 -0.000013787615499
50 0.000039179649279
51 -0.000065659159795
52 -0.000017038010964
53 -0.001958795330792
54 0.001640929742865
55 0.037921602749826
56 0.000381340738734
57 0.005021126884278
58 -0.000183319902341
59 0.000076807225975
60 -0.000016123095725
61 -0.003383741111357
62 0.001832998637270
63 -0.000810479810848
64 -0.000022977353571
65 -0.000296754801596
66 0.000932283788511
67 0.000016611150558
68 0.000011622383326
69 0.000037227573167
70 0.000134998360697
71 -0.000323573490802
72 -0.000383903334538
73 -0.000014736490252
74 -0.000285216276327
75 0.000340336844720
76 0.000057703761740
77 -0.000069697099395
78 -0.000035757114933
79 0.000149215859014
80 0.000042989937465
81 0.000226103852311
82 0.000327776555693
83 0.003157224728901
84 -0.000113170363246
85 -0.000200957977352
86 -0.000308884759846
87 -0.000097130091917
88 -0.000048226632015
89 0.000249218938168
90 -0.000074340046212
91 0.000593872506022
92 -0.000103604099555
93 0.000405682118781
94 -0.000099789795338
95 -0.000608390236531
96 -0.000016757466033
97 0.000296548470589
98 -0.000081758255071
99 -0.000035896047556
100 -0.000133928953173
101 0.000074558192686
102 -0.000002426016661
103 -0.000197582140145
104 0.000068721547157
105 -0.000021394858655
106 0.000088443259578
107 0.000004779700187
 Sym=      5.1
 Ene=     -11.3065
 Spin= Alpha
 Occup=    2.000000
1 -0.038096704596863
2 -0.001300117639144
3 0.004954086813959
4 -0.000077291110554
5 -0.000046997462971
6 0.000006148659523
7 0.003396702774795
8 -0.001283153192989
9 0.000881411887717
10 -0.000374550890678
11 -0.000353953519674
12 0.000331864020178
13 -0.000221271442603
14 -0.000003146396013
15 -0.000001858890655
16 0.001965229432090
17 0.000084796632320
18 -0.000305009872424
19 -0.000055918171126
20 -0.000317052320326
21 0.001695096714395
22 0.000060329143665
23 -0.000052293420598
24 0.000118958192718
25 0.000258137808661
26 0.000076442302863
27 -0.001293496739634
28 -0.000035711085515