[Molden Format]
[Molpro variables]
_NUMVAR=  854.0000000000000    
_AVOGAD= 0.6022136736000000E+24
_BOLTZ= 0.1380658000000000E-22
_CLIGHT=  29979245800.00000    
_EV2006= 0.3674930886769165E-01
_EV= 0.3674932534394180E-01
_ENULL= 0.8854187817000000E-11
_KJOULE= 0.3808798324128737E-03
_KJOULE/MOL= 0.3808798324128737E-03
_CM= 0.4556335267302901E-05
_CM-1= 0.4556335267302901E-05
_DEB2SI= 0.3335641000000000E-29
_AMU2AU=  1822.888390000000    
_KCAL= 0.1593601117815568E-02
_KCAL/MOL= 0.1593601117815568E-02
_KELVIN2006= 0.3166828861084835E-05
_KELVIN= 0.3166814820820034E-05
_JOULE= 0.4359748200000000E-17
_HERTZ2006= 0.1519829850815779E-15
_HERTZ= 0.1519829846011223E-15
_HZ2006= 0.1519829850815779E-15
_HZ= 0.1519829846011223E-15
_JPCAL=  4.184000000000000    
_PLANCK= 0.6626075540000000E-33
_TOA2006= 0.5291772490000000    
_TOA= 0.5291772090000000    
_TOANG2006= 0.5291772490000000    
_TOANG= 0.5291772090000000    
_TORAD= 0.1745329251994330E-01
_TOCM=  219474.6306700000    
_TODEBYE=  2.541580000000000    
_TOEV2006=  27.21139610000000    
_TOE= 0.4803242000000000E-09
_TOEV=  27.21138390000000    
_TOHERTZ2006=  6579683899900000.    
_TOHERTZ=  6579683920700000.    
_TOHZ2006=  6579683899900000.    
_TOHZ=  6579683920700000.    
_TOK2006=  315773.3000000000    
_TOK=  315774.7000000000    
_TOKCAL=  627.5096000000000    
_TOKELVIN2006=  315773.3000000000    
_TOKELVIN=  315774.7000000000    
_TOKJ=  2625.500000000000    
_TOKJOULE=  2625.500000000000    
_TOKG= 0.1660565586000000E-26
_ANG2006=  1.889725988578923    
_ANG=  1.889726131421507    
_ANGSTROM2006=  1.889725988578923    
_ANGSTROM=  1.889726131421507    
_RPAREF=  0.000000000000000    
_RPADISS=  0.000000000000000    
_IGNORE_UNDEF=  2.000000000000000    
_STRICTCHECK=  0.000000000000000    
_SEW_ONEEL=  0.000000000000000    
_CPPDONE=FALSE
_DKROLL_DONE=  0.000000000000000    
_FOCKDONE=TRUE
_GRADONE=FALSE
_HESSDONE=FALSE
_INTDONE=TRUE
_SCFDONE=TRUE
_MODUL_BLOCK=FALSE
_MODUL_CUDA=FALSE
_MODUL_SLATER=FALSE
_MODUL_MRCC=FALSE
_MODUL_NBO6=FALSE
_MODUL_NECI=TRUE
_MODUL_AIMS=TRUE
_MRCC_EXEC=
_FITC_AO_SAVED=FALSE
_FITC_MO_SAVED=FALSE
_SHARED_FS=TRUE
_LSTYP=SEWARD
_INTYP=INTS
_GEOMTYP=ZMAT
_GRADTYP=ALASKA
_DIRECT=FALSE
_DKHO= -1.000000000000000    
_SYNCM=  0.000000000000000    
_BASIS=$BSET
_ZORIENT=  1.000000000000000    
_NELEC=  81.00000000000000    
!SPIN=  1.000000000000000    
_QSDSTEP=  0.000000000000000    
_QSDIRC=  0.000000000000000    
_PROGRAM=HF-SCF
_CPUSTEP=  3.540000000000000    
_SYSSTEP= 0.1400000000000000    
_WALLSTEP=  3.680000000000000    
!DFSCF=  0.000000000000000    
!SCSGRD=  0.000000000000000    
_BASINP=  610.0000000000000    
_CPUTOT=  7.840000000000000    
_CPUSORT= 0.6899999999999999    
_SYSSORT= 0.2400000000000000    
_WALLSORT= 0.9199999980628490    
_DFTEXFAC=  1.000000000000000    
_DMX= -2.584549140322679    
_DMY=  4.265358395618236    
_DMZ= -1.045613497904159    
_DMX_SCF= -2.584549140322679    
_DMY_SCF=  4.265358395618236    
_DMZ_SCF= -1.045613497904159    
_EHOMO=-0.7929490664250345E-01
_ELUMO= 0.1115340991592394    
_ENERGY= -494.1066527917924    
_ENUC=  559.1534577813781    
_GRADEXFAC=  9999.000000000000    
_GRADMETHOD=  2.000000000000000    
_NMRMETHOD=  0.000000000000000    
!GRID_FREEZE= -1.000000000000000    
_ITERATIONS=  16.00000000000000    
_LASTNELEC=  81.00000000000000    
_LASTSPIN=  1.000000000000000    
_LASTSYM=  1.000000000000000    
_MPP_PROG=  0.000000000000000    
_NPROC_MPP=  1.000000000000000    
_NPROC_MPPX=  1.000000000000000    
_NPROC_SMP=  1.000000000000000    
_NUMSTEP=  0.000000000000000    
_ORBITAL=  2100.200000000000    
_PI=  3.141592653589793    
_SEIG_MIN= 0.3060156405441081E-02
_SEWPROP=TRUE
_STATUS=  1.000000000000000    
_SYSTOT= 0.4200000000000000    
_VERSION=  2012001.000000000    
_WALLTOT=  8.260000000000000    
_DATE=23-Sep-15
_LASTORB=RHF
_MACHINE=Linux-3.2.0-90-generic/sce-chem-c01105(x86_64) 64 bit serial version
_OUTPUT=/home/s1267651/phd_mini_19Sept2015/protein/molpro2/lysine_6-31g_scf.xml
_PGROUP=C1
_TIME=18:01:27
_LIBMOL=/usr/local/molpro/molprop_2012_1_Linux_x86_64_i8/lib/
!VIBCNT=  0.000000000000000    
!RGHFCNT=  0.000000000000000    
!SURFREC=  0.000000000000000    
!POLYREC=  0.000000000000000    
!DIPREC=  0.000000000000000    
!VSCFREC=  0.000000000000000    
!VCIREC=  0.000000000000000    
!PVCIREC=  0.000000000000000    
!VMP2REC=  0.000000000000000    
!VMCSCFREC=  0.000000000000000    
!VMRCIREC=  0.000000000000000    
!VIBINFO=  0.000000000000000    
!GAREC=  0.000000000000000    
!SCFORB=  21002.00000000000    
!NEWMOL= -1.000000000000000    
!NEWSYM= -1.000000000000000    
_SLFILES=slscratch
_NGSSTO=  9.000000000000000    
_SIN=SIN
_COS=COS
_TAN=TAN
_ACOS=ACOS
_ASIN=ASIN
_ATAN=ATAN
_COSH=COSH
_SINH=SINH
_TANH=TANH
_ABS=ABS
_MOD=MOD
_ERF=ERF
_REFC=REFC
_ERFC=ERFC
_HYPOT=HYPOT
_J0=J0
_J1=J1
_JN=JN
_GAMMA=GAMMA
_LGAMMA=LGAMMA
_Y0=Y0
_Y1=Y1
_YN=YN
_EXP=EXP
_LOG=LOG
_LOG10=LOG10
_SQRT=SQRT
_INT=INT
_NINT=NINT
_MAX=MAX
_MIN=MIN
_COSMO=  0.000000000000000    
_COSMOIT=  0.000000000000000    
_COSMOES=  0.000000000000000    
_COSMOEDS=  0.000000000000000    
_COSMOEC=  0.000000000000000    
_COSMOEDCORR=  0.000000000000000    
_FEPSI=  1.000000000000000    
_SL_IsMM=  0.000000000000000    
_SL_NSYM=  1.000000000000000    
_SL_System_BitSw=  0.000000000000000    
_SL_Unique_atoms=  0.000000000000000    
_SL_GRAD=  0.000000000000000    
_SL_MAXUPD_Hess=  5.000000000000000    
_SL_N_PRINT_COD=  5.000000000000000    
_SL_PRINT_CODES=  0.000000000000000    
_SL_BasType=  0.000000000000000    
_SL_Energy_Pred=  0.000000000000000    
_SL_New_Coords=  0.000000000000000    
_SL_Total_Nuclea=  0.000000000000000    
_SL_Highest_Mltp=  0.000000000000000    
_SL_Ref_Geom=  0.000000000000000    
_SL_Symmetry_ope=  1.000000000000000    
_SL_agrad=  0.000000000000000    
_SL_GrdMax=  0.000000000000000    
_SL_GrdNorm=  0.000000000000000    
_SL_GrdRMS=  0.000000000000000    
_SL_Hss_Q=  0.000000000000000    
_SL_Hss_X=  0.000000000000000    
_SL_BMxOld=  0.000000000000000    
_SL_KtB=  0.000000000000000    
!LATTICE= -1.000000000000000    
!NEWLATTICE=  0.000000000000000    
!LATGRAD_VAR=FALSE
!SEW_LATTICE=  1.000000000000000    
!LOCAL=  0.000000000000000    
!SAVEDOM= -1.000000000000000    
!RESTDOM= -1.000000000000000    
!SAVEDOM_HF= -1.000000000000000    
!RESTDOM_HF= -1.000000000000000    
!HESSREC=  0.000000000000000    
!FREQREC=  0.000000000000000    
!NMODREC=  0.000000000000000    
!GTASKS=  0.000000000000000    
!HTASKS=  0.000000000000000    
!THRCHG= 0.1000000000000000    
!DEBUG= -1.000000000000000    
!CFIT_CPHF=  0.000000000000000    
!RDOMAUX_CPHF=  3.000000000000000    
!THRAO_CPHF= 0.1000000000000000E-09
!THRMO_CPHF= 0.1000000000000000E-08
!THROV_CPHF= 0.1000000000000000E-11
!THRSW_CPHF= 0.1000000000000000E-09
!THRPROD_CPHF= 0.1000000000000000E-08
!THRAOPR_CPHF= 0.1000000000000000E-11
!CFIT_SCFGRD=  0.000000000000000    
!RDOMAUX_SCFGRD=  5.000000000000000    
!THRAO_SCFGRD= 0.1000000000000000E-09
!THRMO_SCFGRD= 0.1000000000000000E-08
!THROV_SCFGRD= 0.1000000000000000E-11
!THRSW_SCFGRD= 0.1000000000000000E-09
!THRPROD_SCFGRD= 0.1000000000000000E-08
!THRAOPR_SCFGRD= 0.1000000000000000E-11
!LOCFIT_SCF=  0.000000000000000    
!LOCFIT_MP2= -1.000000000000000    
_RIDOM=  0.000000000000000    
!CC2_METHOD=  0.000000000000000    
_BASIS2006=FALSE
_SVDDEL= -1.000000000000000    
_SVDDELA= -1.000000000000000    
_SVDDELP= -1.000000000000000    
_SVDDELF= -1.000000000000000    
_SVDDELS= -1.000000000000000    
_SVDDEL_ABS= -1.000000000000000    
_SVDDELA_ABS= -1.000000000000000    
_SVDDELP_ABS= -1.000000000000000    
_SVDDELF_ABS= -1.000000000000000    
_SVDDELS_ABS= -1.000000000000000    
_MAXBASIS=  0.000000000000000    
!OPT_CONICAL=  0.000000000000000    
!CLEARSP_JGRID=  0.000000000000000    
_4EXT_NDISKS=  1.000000000000000    
!ZMP=  0.000000000000000    
_MAXIT_ZMP=  500.0000000000000    
_MAXDIS_ZMP=  100.0000000000000    
_ACCU_ZMP=  14.00000000000000    
_SHIFTA_ZMP= -100.0000000000000    
!EMBEDFLAG=  1.000000000000000    
!EMBED=FALSE
!EMBED_F12=FALSE
!EMBEDNUC=  0.000000000000000    
_EMBEDENERGY=  0.000000000000000    
_KSPACETIME=  0.000000000000000    
_RSPACETIME=  0.000000000000000    
!EMBED_DFC=FALSE
!NUM_VOIDS=  0.000000000000000    
_IBODY=  0.000000000000000    
_EMBE_TOTAL=  0.000000000000000    
_EMBE_HF=  0.000000000000000    
_EMBE_CORR=  0.000000000000000    
!EDFT=  0.000000000000000    
_IFASTLATGRAD=  0.000000000000000    
_SINDEX=  0.000000000000000    
TITLE=LYSINE
BSET=6-31G
GX1=  2.365000000000000    
GY1=-0.2830000000000000    
GZ1= 0.4470000000000000    
GX2=  1.057000000000000    
GY2= -1.007000000000000    
GZ2= 0.1300000000000000    
GX3=-0.9700000000000002E-01
GY3=-0.5000000000000000E-02
GZ3= 0.1510000000000000    
GX4= -1.405000000000000    
GY4=-0.7290000000000000    
GZ4=-0.1660000000000000    
GX5= -2.559000000000000    
GY5= 0.2730000000000000    
GZ5=-0.1460000000000000    
GX6= -3.839000000000000    
GY6=-0.4350000000000000    
GZ6=-0.4560000000000000    
GX7=  2.608000000000000    
GY7= 0.7790000000000000    
GZ7=-0.5770000000000000    
GX8=  3.505000000000000    
GY8= -1.273000000000000    
GZ8= 0.4270000000000000    
GX9=  4.179000000000000    
GY9= -1.448000000000000    
GZ9=  1.429000000000000    
GX10=  3.763000000000000    
GY10= -1.922000000000000    
GZ10=-0.6330000000000000    
GX11=  2.298000000000000    
GY11= 0.1730000000000000    
GZ11=  1.433000000000000    
GX12= 0.8800000000000000    
GY12= -1.779000000000000    
GZ12= 0.8760000000000000    
GX13=  1.124000000000000    
GY13= -1.462000000000000    
GZ13=-0.8550000000000000    
GX14=  3.494000000000000    
GY14=  1.269000000000001    
GZ14=-0.3620000000000000    
GX15=  1.826000000000000    
GY15=  1.457000000000000    
GZ15=-0.5629999999999999    
GX16=  2.672000000000001    
GY16= 0.3450000000000000    
GZ16= -1.515000000000000    
GX17= 0.8000000000000000E-01
GY17= 0.7670000000000000    
GZ17=-0.5950000000000000    
GX18=-0.1640000000000000    
GY18= 0.4510000000000000    
GZ18=  1.136000000000000    
GX19= -1.582000000000000    
GY19= -1.501000000000000    
GZ19= 0.5790000000000000    
GX20= -1.338000000000000    
GY20= -1.184000000000000    
GZ20= -1.152000000000000    
GX21= -2.382000000000000    
GY21=  1.045000000000000    
GZ21=-0.8910000000000000    
GX22= -2.626000000000000    
GY22= 0.7280000000000000    
GZ22= 0.8400000000000000    
GX23= -4.620000000000001    
GY23= 0.2430000000000000    
GZ23=-0.4420000000000000    
GX24= -4.007000000000000    
GY24= -1.170000000000000    
GZ24= 0.2530000000000000    
GX25= -3.775000000000000    
GY25=-0.8690000000000002    
GZ25= -1.393000000000001    
STR=../input/LYSINE_6-31G_scf.mld
[Atoms] Angs
C     1    6         2.3650000000       -0.2830000000        0.4470000000
C     2    6         1.0570000000       -1.0070000000        0.1300000000
C     3    6        -0.0970000000       -0.0050000000        0.1510000000
C     4    6        -1.4050000000       -0.7290000000       -0.1660000000
C     5    6        -2.5590000000        0.2730000000       -0.1460000000
N     6    7        -3.8390000000       -0.4350000000       -0.4560000000
N     7    7         2.6080000000        0.7790000000       -0.5770000000
C     8    6         3.5050000000       -1.2730000000        0.4270000000
O     9    8         4.1790000000       -1.4480000000        1.4290000000
O    10    8         3.7630000000       -1.9220000000       -0.6330000000
H    11    1         2.2980000000        0.1730000000        1.4330000000
H    12    1         0.8800000000       -1.7790000000        0.8760000000
H    13    1         1.1240000000       -1.4620000000       -0.8550000000
H    14    1         3.4940000000        1.2690000000       -0.3620000000
H    15    1         1.8260000000        1.4570000000       -0.5630000000
H    16    1         2.6720000000        0.3450000000       -1.5150000000
H    17    1         0.0800000000        0.7670000000       -0.5950000000
H    18    1        -0.1640000000        0.4510000000        1.1360000000
H    19    1        -1.5820000000       -1.5010000000        0.5790000000
H    20    1        -1.3380000000       -1.1840000000       -1.1520000000
H    21    1        -2.3820000000        1.0450000000       -0.8910000000
H    22    1        -2.6260000000        0.7280000000        0.8400000000
H    23    1        -4.6200000000        0.2430000000       -0.4420000000
H    24    1        -4.0070000000       -1.1700000000        0.2530000000
H    25    1        -3.7750000000       -0.8690000000       -1.3930000000
[GTO]
  1 0
 s    6  1.00
  0.3047524900D+04  0.1834737091D-02
  0.4573695200D+03  0.1403732293D-01
  0.1039486800D+03  0.6884262165D-01
  0.2921015500D+02  0.2321844388D+00
  0.9286663000D+01  0.4679413476D+00
  0.3163927000D+01  0.3623119882D+00
 s    3  1.00
  0.7868272300D+01 -0.1193324245D+00
  0.1881288500D+01 -0.1608541561D+00
  0.5442492600D+00  0.1143456443D+01
 s    1  1.00
  0.1687144800D+00  0.1000000000D+01
 p    3  1.00
  0.7868272300D+01  0.6899906693D-01
  0.1881288500D+01  0.3164239597D+00
  0.5442492600D+00  0.7443082892D+00
 p    1  1.00
  0.1687144800D+00  0.1000000000D+01
  
  2 0
 s    6  1.00
  0.3047524900D+04  0.1834737091D-02
  0.4573695200D+03  0.1403732293D-01
  0.1039486800D+03  0.6884262165D-01
  0.2921015500D+02  0.2321844388D+00
  0.9286663000D+01  0.4679413476D+00
  0.3163927000D+01  0.3623119882D+00
 s    3  1.00
  0.7868272300D+01 -0.1193324245D+00
  0.1881288500D+01 -0.1608541561D+00
  0.5442492600D+00  0.1143456443D+01
 s    1  1.00
  0.1687144800D+00  0.1000000000D+01
 p    3  1.00
  0.7868272300D+01  0.6899906693D-01
  0.1881288500D+01  0.3164239597D+00
  0.5442492600D+00  0.7443082892D+00
 p    1  1.00
  0.1687144800D+00  0.1000000000D+01
  
  3 0
 s    6  1.00
  0.3047524900D+04  0.1834737091D-02
  0.4573695200D+03  0.1403732293D-01
  0.1039486800D+03  0.6884262165D-01
  0.2921015500D+02  0.2321844388D+00
  0.9286663000D+01  0.4679413476D+00
  0.3163927000D+01  0.3623119882D+00
 s    3  1.00
  0.7868272300D+01 -0.1193324245D+00
  0.1881288500D+01 -0.1608541561D+00
  0.5442492600D+00  0.1143456443D+01
 s    1  1.00
  0.1687144800D+00  0.1000000000D+01
 p    3  1.00
  0.7868272300D+01  0.6899906693D-01
  0.1881288500D+01  0.3164239597D+00
  0.5442492600D+00  0.7443082892D+00
 p    1  1.00
  0.1687144800D+00  0.1000000000D+01
  
  4 0
 s    6  1.00
  0.3047524900D+04  0.1834737091D-02
  0.4573695200D+03  0.1403732293D-01
  0.1039486800D+03  0.6884262165D-01
  0.2921015500D+02  0.2321844388D+00
  0.9286663000D+01  0.4679413476D+00
  0.3163927000D+01  0.3623119882D+00
 s    3  1.00
  0.7868272300D+01 -0.1193324245D+00
  0.1881288500D+01 -0.1608541561D+00
  0.5442492600D+00  0.1143456443D+01
 s    1  1.00
  0.1687144800D+00  0.1000000000D+01
 p    3  1.00
  0.7868272300D+01  0.6899906693D-01
  0.1881288500D+01  0.3164239597D+00
  0.5442492600D+00  0.7443082892D+00
 p    1  1.00
  0.1687144800D+00  0.1000000000D+01
  
  5 0
 s    6  1.00
  0.3047524900D+04  0.1834737091D-02
  0.4573695200D+03  0.1403732293D-01
  0.1039486800D+03  0.6884262165D-01
  0.2921015500D+02  0.2321844388D+00
  0.9286663000D+01  0.4679413476D+00
  0.3163927000D+01  0.3623119882D+00
 s    3  1.00
  0.7868272300D+01 -0.1193324245D+00
  0.1881288500D+01 -0.1608541561D+00
  0.5442492600D+00  0.1143456443D+01
 s    1  1.00
  0.1687144800D+00  0.1000000000D+01
 p    3  1.00
  0.7868272300D+01  0.6899906693D-01
  0.1881288500D+01  0.3164239597D+00
  0.5442492600D+00  0.7443082892D+00
 p    1  1.00
  0.1687144800D+00  0.1000000000D+01
  
  6 0
 s    6  1.00
  0.4173511500D+04  0.1834772199D-02
  0.6274579100D+03  0.1399462699D-01
  0.1429020900D+03  0.6858655195D-01
  0.4023432900D+02  0.2322408698D+00
  0.1282021300D+02  0.4690699496D+00
  0.4390437000D+01  0.3604551997D+00
 s    3  1.00
  0.1162636200D+02 -0.1149611854D+00
  0.2716279800D+01 -0.1691174879D+00
  0.7722184000D+00  0.1145851954D+01
 s    1  1.00
  0.2120315000D+00  0.1000000000D+01
 p    3  1.00
  0.1162636200D+02  0.6757974372D-01
  0.2716279800D+01  0.3239072986D+00
  0.7722184000D+00  0.7408951369D+00
 p    1  1.00
  0.2120315000D+00  0.1000000000D+01
  
  7 0
 s    6  1.00
  0.4173511500D+04  0.1834772199D-02
  0.6274579100D+03  0.1399462699D-01
  0.1429020900D+03  0.6858655195D-01
  0.4023432900D+02  0.2322408698D+00
  0.1282021300D+02  0.4690699496D+00
  0.4390437000D+01  0.3604551997D+00
 s    3  1.00
  0.1162636200D+02 -0.1149611854D+00
  0.2716279800D+01 -0.1691174879D+00
  0.7722184000D+00  0.1145851954D+01
 s    1  1.00
  0.2120315000D+00  0.1000000000D+01
 p    3  1.00
  0.1162636200D+02  0.6757974372D-01
  0.2716279800D+01  0.3239072986D+00
  0.7722184000D+00  0.7408951369D+00
 p    1  1.00
  0.2120315000D+00  0.1000000000D+01
  
  8 0
 s    6  1.00
  0.3047524900D+04  0.1834737091D-02
  0.4573695200D+03  0.1403732293D-01
  0.1039486800D+03  0.6884262165D-01
  0.2921015500D+02  0.2321844388D+00
  0.9286663000D+01  0.4679413476D+00
  0.3163927000D+01  0.3623119882D+00
 s    3  1.00
  0.7868272300D+01 -0.1193324245D+00
  0.1881288500D+01 -0.1608541561D+00
  0.5442492600D+00  0.1143456443D+01
 s    1  1.00
  0.1687144800D+00  0.1000000000D+01
 p    3  1.00
  0.7868272300D+01  0.6899906693D-01
  0.1881288500D+01  0.3164239597D+00
  0.5442492600D+00  0.7443082892D+00
 p    1  1.00
  0.1687144800D+00  0.1000000000D+01
  
  9 0
 s    6  1.00
  0.5484671700D+04  0.1831074396D-02
  0.8252349500D+03  0.1395017197D-01
  0.1880469600D+03  0.6844507786D-01
  0.5296450000D+02  0.2327143395D+00
  0.1689757000D+02  0.4701928990D+00
  0.5799635300D+01  0.3585208493D+00
 s    3  1.00
  0.1553961600D+02 -0.1107775519D+00
  0.3599933600D+01 -0.1480262626D+00
  0.1013761800D+01  0.1130767020D+01
 s    1  1.00
  0.2700058200D+00  0.1000000000D+01
 p    3  1.00
  0.1553961600D+02  0.7087426737D-01
  0.3599933600D+01  0.3397528370D+00
  0.1013761800D+01  0.7271585736D+00
 p    1  1.00
  0.2700058200D+00  0.1000000000D+01
  
 10 0
 s    6  1.00
  0.5484671700D+04  0.1831074396D-02
  0.8252349500D+03  0.1395017197D-01
  0.1880469600D+03  0.6844507786D-01
  0.5296450000D+02  0.2327143395D+00
  0.1689757000D+02  0.4701928990D+00
  0.5799635300D+01  0.3585208493D+00
 s    3  1.00
  0.1553961600D+02 -0.1107775519D+00
  0.3599933600D+01 -0.1480262626D+00
  0.1013761800D+01  0.1130767020D+01
 s    1  1.00
  0.2700058200D+00  0.1000000000D+01
 p    3  1.00
  0.1553961600D+02  0.7087426737D-01
  0.3599933600D+01  0.3397528370D+00
  0.1013761800D+01  0.7271585736D+00
 p    1  1.00
  0.2700058200D+00  0.1000000000D+01
  
 11 0
 s    3  1.00
  0.1873113700D+02  0.3349460400D-01
  0.2825394400D+01  0.2347269500D+00
  0.6401216900D+00  0.8137573301D+00
 s    1  1.00
  0.1612777600D+00  0.1000000000D+01
  
 12 0
 s    3  1.00
  0.1873113700D+02  0.3349460400D-01
  0.2825394400D+01  0.2347269500D+00
  0.6401216900D+00  0.8137573301D+00
 s    1  1.00
  0.1612777600D+00  0.1000000000D+01
  
 13 0
 s    3  1.00
  0.1873113700D+02  0.3349460400D-01
  0.2825394400D+01  0.2347269500D+00
  0.6401216900D+00  0.8137573301D+00
 s    1  1.00
  0.1612777600D+00  0.1000000000D+01
  
 14 0
 s    3  1.00
  0.1873113700D+02  0.3349460400D-01
  0.2825394400D+01  0.2347269500D+00
  0.6401216900D+00  0.8137573301D+00
 s    1  1.00
  0.1612777600D+00  0.1000000000D+01
  
 15 0
 s    3  1.00
  0.1873113700D+02  0.3349460400D-01
  0.2825394400D+01  0.2347269500D+00
  0.6401216900D+00  0.8137573301D+00
 s    1  1.00
  0.1612777600D+00  0.1000000000D+01
  
 16 0
 s    3  1.00
  0.1873113700D+02  0.3349460400D-01
  0.2825394400D+01  0.2347269500D+00
  0.6401216900D+00  0.8137573301D+00
 s    1  1.00
  0.1612777600D+00  0.1000000000D+01
  
 17 0
 s    3  1.00
  0.1873113700D+02  0.3349460400D-01
  0.2825394400D+01  0.2347269500D+00
  0.6401216900D+00  0.8137573301D+00
 s    1  1.00
  0.1612777600D+00  0.1000000000D+01
  
 18 0
 s    3  1.00
  0.1873113700D+02  0.3349460400D-01
  0.2825394400D+01  0.2347269500D+00
  0.6401216900D+00  0.8137573301D+00
 s    1  1.00
  0.1612777600D+00  0.1000000000D+01
  
 19 0
 s    3  1.00
  0.1873113700D+02  0.3349460400D-01
  0.2825394400D+01  0.2347269500D+00
  0.6401216900D+00  0.8137573301D+00
 s    1  1.00
  0.1612777600D+00  0.1000000000D+01
  
 20 0
 s    3  1.00
  0.1873113700D+02  0.3349460400D-01
  0.2825394400D+01  0.2347269500D+00
  0.6401216900D+00  0.8137573301D+00
 s    1  1.00
  0.1612777600D+00  0.1000000000D+01
  
 21 0
 s    3  1.00
  0.1873113700D+02  0.3349460400D-01
  0.2825394400D+01  0.2347269500D+00
  0.6401216900D+00  0.8137573301D+00
 s    1  1.00
  0.1612777600D+00  0.1000000000D+01
  
 22 0
 s    3  1.00
  0.1873113700D+02  0.3349460400D-01
  0.2825394400D+01  0.2347269500D+00
  0.6401216900D+00  0.8137573301D+00
 s    1  1.00
  0.1612777600D+00  0.1000000000D+01
  
 23 0
 s    3  1.00
  0.1873113700D+02  0.3349460400D-01
  0.2825394400D+01  0.2347269500D+00
  0.6401216900D+00  0.8137573301D+00
 s    1  1.00
  0.1612777600D+00  0.1000000000D+01
  
 24 0
 s    3  1.00
  0.1873113700D+02  0.3349460400D-01
  0.2825394400D+01  0.2347269500D+00
  0.6401216900D+00  0.8137573301D+00
 s    1  1.00
  0.1612777600D+00  0.1000000000D+01
  
 25 0
 s    3  1.00
  0.1873113700D+02  0.3349460400D-01
  0.2825394400D+01  0.2347269500D+00
  0.6401216900D+00  0.8137573301D+00
 s    1  1.00
  0.1612777600D+00  0.1000000000D+01
 
 
[MO]
 Sym=      1.1
 Ene=     -20.4527
 Spin= Alpha
 Occup=    2.000000
1 -0.000059141742367
2 -0.000700773903429
3 0.003221063359779
4 -0.000036910683553
5 0.000095312784837
6 0.000137475665864
7 -0.000637057320565
8 -0.001005521435474
9 -0.003439345108012
10 0.000017631199102
11 0.000087454308457
12 -0.002079312790794
13 -0.000086960600019
14 -0.000003822778906
15 0.000000537356944
16 -0.000284413211264
17 -0.001224236545989
18 0.000616004544744
19 -0.000019632816469
20 -0.000148022479835
21 0.001230121871435
22 0.000018762744618
23 0.000004859839081
24 -0.000020491580570
25 0.000310622768376
26 -0.000441560861912
27 -0.000115277640978
28 0.000010249326116
29 0.000079918144458
30 -0.000465929519332
31 0.000002842742274
32 -0.000011903264882
33 0.000010243789199
34 -0.000271214445807
35 0.000012150810897
36 -0.000097121702803
37 -0.000002200322382
38 -0.000018406653873
39 0.000010327786187
40 -0.000010431353863
41 -0.000005913451042
42 -0.000005197449718
43 0.000121755740924
44 0.000060413297628
45 0.000058147094560
46 -0.000000639079735
47 -0.000005514743195
48 0.000074274365442
49 0.000005431822853
50 -0.000005841014654
51 0.000000947647863
52 -0.000001539502165
53 0.000055271048546
54 -0.000000091501177
55 0.000008999767205
56 0.000048248872211
57 -0.001171862021891
58 -0.000047304144150
59 0.000035396623733
60 -0.000027625486274
61 0.000753050913990
62 0.000589269317891
63 -0.000039209017038
64 0.000162256905127
65 0.000265902347410
66 0.005419545076921
67 -0.000037834138977
68 0.000021012076775
69 -0.000005520471625
70 0.004607034954290
71 -0.000906658510937
72 0.007398831678112
73 0.99586184639887
74 0.023421989178561
75 -0.015363646475647
76 -0.001373398490974
77 0.000462540351198
78 -0.001822818446567
79 0.002761622482474
80 -0.000790973840830
81 0.003979887458791
82 -0.003507284585320
83 -0.000568073659172
84 0.002036231032080
85 0.000069941295132
86 -0.000092100400652
87 -0.000080977551386
88 -0.001053260939807
89 0.000858896306145
90 -0.000074123382417
91 0.000128018324516
92 0.001136366619852
93 0.000037225661712
94 -0.000657746034824
95 0.000048000471912
96 0.000387068180602
97 -0.000015450032082
98 -0.000503547913658
99 0.000110095457980
100 0.000137258063844
101 0.000016289485494
102 0.000296314557883
103 -0.000046951987111
104 -0.000005179895315
105 -0.000037102018581
106 0.000034227130709
107 0.000023583734465
108 0.000087358042133
109 0.000032321662342
110 -0.000018877262942
111 -0.000006077360240
112 -0.000010271288822
113 -0.000015656885161
114 -0.000017996726072
115 -0.000013822826166
116 -0.000010837029552
117 0.000009156890660
118 -0.000003342177435
119 0.000001357003288
120 0.000006262084512
 Sym=      2.1
 Ene=     -20.4420
 Spin= Alpha
 Occup=    2.000000
1 -0.000067984569180
2 -0.000734400169811
3 0.003930027392710
4 -0.000261030476721
5 0.000228356486995
6 -0.000032762983004
7 0.002201862519461
8 -0.001328059569745
9 0.002227687861498
10 0.000034262705517
11 0.000281787881252
12 -0.000532023804403
13 0.000052802435923
14 -0.000020636738971
15 0.000058601107469
16 -0.000842467890544
17 0.000832280810175
18 -0.000854016207778
19 0.000002406570042
20 0.000000407799584
21 -0.000681460007204
22 -0.000073686706013
23 -0.000022578372466
24 -0.000041196644110
25 0.000442165874605
26 0.000496692159317
27 0.000565595513083
28 -0.000013755307090
29 -0.000106817016610
30 0.000948338050982
31 0.000041082611756
32 -0.000013258976184
33 0.000007374466341
34 0.000075880263771
35 0.000361575526732
36 -0.000072483278350
37 0.000008403156563
38 0.000061003118849
39 -0.000501890269478
40 -0.000021784572149
41 0.000006395479463
42 -0.000000790214270
43 -0.000064152860440
44 0.000137412651316
45 0.000054845904686
46 -0.000002678109502
47 -0.000025333597026
48 0.000141251590250
49 -0.000000502299700
50 -0.000000247916466
51 -0.000000168397870
52 0.000079928555905
53 0.000020516362076
54 0.000008048384903
55 0.000016318870888
56 0.000189837737261
57 -0.000051792280360
58 0.000076519459042
59 -0.000052576948430
60 0.000015867163984
61 -0.000986063717706
62 0.000303455422389
63 -0.000086367182630
64 0.000117999136947
65 -0.000013102371366
66 0.003871952736848
67 0.000099509894183
68 -0.000082312971933
69 -0.000029131425369
70 0.001964964007203
71 -0.004710994618604
72 -0.007379927784814
73 0.003473603358718
74 -0.000409705776237
75 0.001997505093856
76 0.000095289933599
77 -0.000069879271847
78 0.000041539088844
79 -0.001072892997940
80 0.001066692579350
81 0.000298633827263
82 0.99588432694235
83 0.023240317692659
84 -0.014833511859710
85 -0.000609565360840
86 0.001282981170253
87 0.001731753419308
88 0.001064525189172
89 -0.002583374720554
90 -0.004063102580904
91 -0.000411158320613
92 -0.000444786375364
93 0.000200615070613
94 0.000526885594946
95 -0.000047295337394
96 -0.000020196478369
97 0.000216446758746
98 0.000193463912273
99 -0.000101983108042
100 -0.000352860294527
101 0.000023720274279
102 0.000090775309973
103 0.000020339160283
104 0.000058562224449
105 -0.000048450277494
106 -0.000277485872519
107 -0.000007856267338
108 0.000040296465133
109 -0.000025415281375
110 -0.000085064800119
111 0.000018026738208
112 0.000039748602116
113 0.000012497323402
114 0.000012421841567
115 -0.000002854794957
116 -0.000002748188745
117 -0.000010749784566
118 0.000015267880454
119 -0.000012306046708
120 0.000011888475030
 Sym=      3.1
 Ene=     -15.7553
 Spin= Alpha
 Occup=    2.000000
1 -0.000000976483069
2 -0.000484768420160
3 0.003593175198474
4 0.000056356229909
5 0.000177274956992
6 -0.000110453793940
7 0.000245118076907
8 0.001994471652648
9 -0.001458424680157
10 -0.000028946009664
11 -0.000390355550746
12 0.000635699225942
13 -0.000090079276103
14 -0.000181020394587
15 0.000046470230034
16 -0.000138854721931
17 0.000533408263376
18 0.000001252790385
19 0.000009940281107
20 -0.000002761256784
21 -0.000282151210925
22 -0.000048023467766
23 0.000007159464056
24 0.000096438661973
25 -0.000479241771314
26 0.000124811413651
27 -0.000594571106646
28 0.000001952828889
29 0.000006911242422
30 -0.000218815998699
31 0.000001270139839
32 -0.000011592780750
33 -0.000032918204608
34 -0.000162938337336
35 -0.000091862093580
36 0.000304351493863
37 0.000002950719002
38 0.000028188884274
39 -0.000108491394728
40 -0.000004877746492
41 -0.000002856762902
42 0.000010317873280
43 0.000001012209874
44 0.000013411009172
45 -0.000157215320618
46 0.000000188228074
47 0.000000644093246
48 0.000006687576308
49 0.000003305359427
50 0.000000096653087
51 -0.000005222962796
52 -0.000018835573223
53 -0.000001238762043
54 0.000052366014556
55 0.99605061272691
56 0.024409009481614
57 -0.014506621220201
58 -0.000026406587548
59 0.000164272492960
60 -0.000036664889167
61 0.000305999560631
62 0.000795600287885
63 -0.000952151974310
64 -0.000026369255172
65 -0.000362986052490
66 0.000710279126002
67 0.000132516029006
68 -0.000149403114821
69 0.000035613449774
70 -0.000580802956566
71 0.000128505380076
72 -0.000381534863031
73 -0.000003351282702
74 -0.000028911466926
75 0.000271640778375
76 0.000004592096910
77 0.000036921247597
78 -0.000016792598276
79 -0.000038524048343
80 -0.000094510594539
81 0.000000122084637
82 0.000007647139548
83 0.000136639639143
84 -0.000524741028217
85 -0.000035963672682
86 0.000002170538324
87 -0.000009060674940
88 0.000266146728911
89 -0.000199440727180
90 -0.000019686089845
91 -0.000228446708966
92 -0.000230138145995
93 -0.000042165134165
94 0.000415177956873
95 -0.000013589558392
96 -0.000221150919829
97 0.000353443164342
98 0.001826025864457
99 0.000267232813647
100 0.002245468282444
101 0.000315118729326
102 0.001852488556834
103 0.000003728343555
104 -0.000556975889246
105 0.000124932793631
106 0.000113077678872
107 -0.000014537729019
108 -0.000139557564870
109 0.000029423435998
110 0.000153407823466
111 -0.000019545420665
112 0.000000243131167
113 0.000020868535290
114 0.000073743597837
115 -0.000002446261918
116 -0.000008358995856
117 -0.000007443323092
118 -0.000013503443367
119 0.000012342044099
120 0.000003096580927
 Sym=      4.1
 Ene=     -15.6349
 Spin= Alpha
 Occup=    2.000000
1 -0.000004471372376
2 -0.000051068340398
3 -0.000030726326928
4 0.000038597998009
5 -0.000022775016034
6 0.000002199904957
7 -0.000303649414239
8 0.000273484885780
9 -0.000025436845305
10 0.000002485859220
11 0.000014561839467
12 0.000039018094997
13 0.000008904174898
14 -0.000006464969257
15 0.000000840236087
16 -0.000007155979923
17 0.000159833282187
18 0.000038703997430
19 -0.000032723936413
20 -0.000279211128300
21 0.001343445500649
22 0.000092583895903
23 -0.000010417327006
24 0.000012214530980
25 -0.001217041515076
26 -0.000058097258420
27 -0.000191662285601
28 0.000004292007381
29 -0.000117955210631
30 -0.001137024683262