[Molden Format]
[Molpro variables]
_NUMVAR=  839.0000000000000    
_AVOGAD= 0.6022136736000000E+24
_BOLTZ= 0.1380658000000000E-22
_CLIGHT=  29979245800.00000    
_EV2006= 0.3674930886769165E-01
_EV= 0.3674932534394180E-01
_ENULL= 0.8854187817000000E-11
_KJOULE= 0.3808798324128737E-03
_KJOULE/MOL= 0.3808798324128737E-03
_CM= 0.4556335267302901E-05
_CM-1= 0.4556335267302901E-05
_DEB2SI= 0.3335641000000000E-29
_AMU2AU=  1822.888390000000    
_KCAL= 0.1593601117815568E-02
_KCAL/MOL= 0.1593601117815568E-02
_KELVIN2006= 0.3166828861084835E-05
_KELVIN= 0.3166814820820034E-05
_JOULE= 0.4359748200000000E-17
_HERTZ2006= 0.1519829850815779E-15
_HERTZ= 0.1519829846011223E-15
_HZ2006= 0.1519829850815779E-15
_HZ= 0.1519829846011223E-15
_JPCAL=  4.184000000000000    
_PLANCK= 0.6626075540000000E-33
_TOA2006= 0.5291772490000000    
_TOA= 0.5291772090000000    
_TOANG2006= 0.5291772490000000    
_TOANG= 0.5291772090000000    
_TORAD= 0.1745329251994330E-01
_TOCM=  219474.6306700000    
_TODEBYE=  2.541580000000000    
_TOEV2006=  27.21139610000000    
_TOE= 0.4803242000000000E-09
_TOEV=  27.21138390000000    
_TOHERTZ2006=  6579683899900000.    
_TOHERTZ=  6579683920700000.    
_TOHZ2006=  6579683899900000.    
_TOHZ=  6579683920700000.    
_TOK2006=  315773.3000000000    
_TOK=  315774.7000000000    
_TOKCAL=  627.5096000000000    
_TOKELVIN2006=  315773.3000000000    
_TOKELVIN=  315774.7000000000    
_TOKJ=  2625.500000000000    
_TOKJOULE=  2625.500000000000    
_TOKG= 0.1660565586000000E-26
_ANG2006=  1.889725988578923    
_ANG=  1.889726131421507    
_ANGSTROM2006=  1.889725988578923    
_ANGSTROM=  1.889726131421507    
_RPAREF=  0.000000000000000    
_RPADISS=  0.000000000000000    
_IGNORE_UNDEF=  2.000000000000000    
_STRICTCHECK=  0.000000000000000    
_SEW_ONEEL=  0.000000000000000    
_CPPDONE=FALSE
_DKROLL_DONE=  0.000000000000000    
_FOCKDONE=TRUE
_GRADONE=FALSE
_HESSDONE=FALSE
_INTDONE=TRUE
_SCFDONE=TRUE
_MODUL_BLOCK=FALSE
_MODUL_CUDA=FALSE
_MODUL_SLATER=FALSE
_MODUL_MRCC=FALSE
_MODUL_NBO6=FALSE
_MODUL_NECI=TRUE
_MODUL_AIMS=TRUE
_MRCC_EXEC=
_FITC_AO_SAVED=FALSE
_FITC_MO_SAVED=FALSE
_SHARED_FS=TRUE
_LSTYP=SEWARD
_INTYP=INTS
_GEOMTYP=ZMAT
_GRADTYP=ALASKA
_DIRECT=FALSE
_DKHO= -1.000000000000000    
_SYNCM=  0.000000000000000    
_BASIS=$BSET
_ZORIENT=  1.000000000000000    
_NELEC=  80.00000000000000    
!SPIN=  0.000000000000000    
_QSDSTEP=  0.000000000000000    
_QSDIRC=  0.000000000000000    
_PROGRAM=HF-SCF
_CPUSTEP=  1.560000000000000    
_SYSSTEP= 0.6999999999999998E-01
_WALLSTEP=  1.620000000000000    
!DFSCF=  0.000000000000000    
!SCSGRD=  0.000000000000000    
_BASINP=  610.0000000000000    
_CPUTOT=  4.790000000000000    
_CPUSORT= 0.4800000000000000    
_SYSSORT= 0.1800000000000000    
_WALLSORT= 0.6699999980628490    
_DFTEXFAC=  1.000000000000000    
_DMX= -2.851777218383518    
_DMY= -4.777014807567539    
_DMZ=  1.077563963229665    
_DMX_SCF= -2.851777218383518    
_DMY_SCF= -4.777014807567539    
_DMZ_SCF=  1.077563963229665    
_EHOMO=-0.3221611997951696    
_ELUMO= 0.1043359723064745    
_ENERGY= -797.1437724869693    
_ENUC=  535.7932968493097    
_GRADEXFAC=  9999.000000000000    
_GRADMETHOD=  1.000000000000000    
_NMRMETHOD=  0.000000000000000    
!GRID_FREEZE= -1.000000000000000    
_ITERATIONS=  11.00000000000000    
_LASTNELEC=  80.00000000000000    
_LASTSPIN=  0.000000000000000    
_LASTSYM=  1.000000000000000    
_MPP_PROG=  0.000000000000000    
_NPROC_MPP=  1.000000000000000    
_NPROC_MPPX=  1.000000000000000    
_NPROC_SMP=  1.000000000000000    
_NUMSTEP=  0.000000000000000    
_ORBITAL=  2100.200000000000    
_PI=  3.141592653589793    
_SEIG_MIN= 0.3718958086870830E-02
_SEWPROP=TRUE
_STATUS=  1.000000000000000    
_SYSTOT= 0.2900000000000000    
_VERSION=  2012001.000000000    
_WALLTOT=  5.070000000000000    
_DATE=23-Sep-15
_LASTORB=RHF
_MACHINE=Linux-3.2.0-90-generic/sce-chem-c01105(x86_64) 64 bit serial version
_OUTPUT=/home/s1267651/phd_mini_19Sept2015/protein/molpro2/methionine_6-31g_scf.xml
_PGROUP=C1
_TIME=18:02:26
_LIBMOL=/usr/local/molpro/molprop_2012_1_Linux_x86_64_i8/lib/
!VIBCNT=  0.000000000000000    
!RGHFCNT=  0.000000000000000    
!SURFREC=  0.000000000000000    
!POLYREC=  0.000000000000000    
!DIPREC=  0.000000000000000    
!VSCFREC=  0.000000000000000    
!VCIREC=  0.000000000000000    
!PVCIREC=  0.000000000000000    
!VMP2REC=  0.000000000000000    
!VMCSCFREC=  0.000000000000000    
!VMRCIREC=  0.000000000000000    
!VIBINFO=  0.000000000000000    
!GAREC=  0.000000000000000    
!SCFORB=  21002.00000000000    
!NEWMOL= -1.000000000000000    
!NEWSYM= -1.000000000000000    
_SLFILES=slscratch
_NGSSTO=  9.000000000000000    
_SIN=SIN
_COS=COS
_TAN=TAN
_ACOS=ACOS
_ASIN=ASIN
_ATAN=ATAN
_COSH=COSH
_SINH=SINH
_TANH=TANH
_ABS=ABS
_MOD=MOD
_ERF=ERF
_REFC=REFC
_ERFC=ERFC
_HYPOT=HYPOT
_J0=J0
_J1=J1
_JN=JN
_GAMMA=GAMMA
_LGAMMA=LGAMMA
_Y0=Y0
_Y1=Y1
_YN=YN
_EXP=EXP
_LOG=LOG
_LOG10=LOG10
_SQRT=SQRT
_INT=INT
_NINT=NINT
_MAX=MAX
_MIN=MIN
_COSMO=  0.000000000000000    
_COSMOIT=  0.000000000000000    
_COSMOES=  0.000000000000000    
_COSMOEDS=  0.000000000000000    
_COSMOEC=  0.000000000000000    
_COSMOEDCORR=  0.000000000000000    
_FEPSI=  1.000000000000000    
_SL_IsMM=  0.000000000000000    
_SL_NSYM=  1.000000000000000    
_SL_System_BitSw=  0.000000000000000    
_SL_Unique_atoms=  0.000000000000000    
_SL_GRAD=  0.000000000000000    
_SL_MAXUPD_Hess=  5.000000000000000    
_SL_N_PRINT_COD=  5.000000000000000    
_SL_PRINT_CODES=  0.000000000000000    
_SL_BasType=  0.000000000000000    
_SL_Energy_Pred=  0.000000000000000    
_SL_New_Coords=  0.000000000000000    
_SL_Total_Nuclea=  0.000000000000000    
_SL_Highest_Mltp=  0.000000000000000    
_SL_Ref_Geom=  0.000000000000000    
_SL_Symmetry_ope=  1.000000000000000    
_SL_agrad=  0.000000000000000    
_SL_GrdMax=  0.000000000000000    
_SL_GrdNorm=  0.000000000000000    
_SL_GrdRMS=  0.000000000000000    
_SL_Hss_Q=  0.000000000000000    
_SL_Hss_X=  0.000000000000000    
_SL_BMxOld=  0.000000000000000    
_SL_KtB=  0.000000000000000    
!LATTICE= -1.000000000000000    
!NEWLATTICE=  0.000000000000000    
!LATGRAD_VAR=FALSE
!SEW_LATTICE=  1.000000000000000    
!LOCAL=  0.000000000000000    
!SAVEDOM= -1.000000000000000    
!RESTDOM= -1.000000000000000    
!SAVEDOM_HF= -1.000000000000000    
!RESTDOM_HF= -1.000000000000000    
!HESSREC=  0.000000000000000    
!FREQREC=  0.000000000000000    
!NMODREC=  0.000000000000000    
!GTASKS=  0.000000000000000    
!HTASKS=  0.000000000000000    
!THRCHG= 0.1000000000000000    
!DEBUG= -1.000000000000000    
!CFIT_CPHF=  0.000000000000000    
!RDOMAUX_CPHF=  3.000000000000000    
!THRAO_CPHF= 0.1000000000000000E-09
!THRMO_CPHF= 0.1000000000000000E-08
!THROV_CPHF= 0.1000000000000000E-11
!THRSW_CPHF= 0.1000000000000000E-09
!THRPROD_CPHF= 0.1000000000000000E-08
!THRAOPR_CPHF= 0.1000000000000000E-11
!CFIT_SCFGRD=  0.000000000000000    
!RDOMAUX_SCFGRD=  5.000000000000000    
!THRAO_SCFGRD= 0.1000000000000000E-09
!THRMO_SCFGRD= 0.1000000000000000E-08
!THROV_SCFGRD= 0.1000000000000000E-11
!THRSW_SCFGRD= 0.1000000000000000E-09
!THRPROD_SCFGRD= 0.1000000000000000E-08
!THRAOPR_SCFGRD= 0.1000000000000000E-11
!LOCFIT_SCF=  0.000000000000000    
!LOCFIT_MP2= -1.000000000000000    
_RIDOM=  0.000000000000000    
!CC2_METHOD=  0.000000000000000    
_BASIS2006=FALSE
_SVDDEL= -1.000000000000000    
_SVDDELA= -1.000000000000000    
_SVDDELP= -1.000000000000000    
_SVDDELF= -1.000000000000000    
_SVDDELS= -1.000000000000000    
_SVDDEL_ABS= -1.000000000000000    
_SVDDELA_ABS= -1.000000000000000    
_SVDDELP_ABS= -1.000000000000000    
_SVDDELF_ABS= -1.000000000000000    
_SVDDELS_ABS= -1.000000000000000    
_MAXBASIS=  0.000000000000000    
!OPT_CONICAL=  0.000000000000000    
!CLEARSP_JGRID=  0.000000000000000    
_4EXT_NDISKS=  1.000000000000000    
!ZMP=  0.000000000000000    
_MAXIT_ZMP=  500.0000000000000    
_MAXDIS_ZMP=  100.0000000000000    
_ACCU_ZMP=  14.00000000000000    
_SHIFTA_ZMP= -100.0000000000000    
!EMBEDFLAG=  1.000000000000000    
!EMBED=FALSE
!EMBED_F12=FALSE
!EMBEDNUC=  0.000000000000000    
_EMBEDENERGY=  0.000000000000000    
_KSPACETIME=  0.000000000000000    
_RSPACETIME=  0.000000000000000    
!EMBED_DFC=FALSE
!NUM_VOIDS=  0.000000000000000    
_IBODY=  0.000000000000000    
_EMBE_TOTAL=  0.000000000000000    
_EMBE_HF=  0.000000000000000    
_EMBE_CORR=  0.000000000000000    
!EDFT=  0.000000000000000    
_IFASTLATGRAD=  0.000000000000000    
_SINDEX=  0.000000000000000    
TITLE=METHIONINE
BSET=6-31G
GX1=  1.942000000000000    
GY1= 0.3580000000000000    
GZ1=-0.5700000000000002    
GX2= 0.6200000000000000    
GY2=  1.068000000000001    
GZ2=-0.2790000000000000    
GX3=-0.5190000000000000    
GY3= 0.5100000000000000E-01
GZ3=-0.2970000000000000    
GX4= -2.093000000000000    
GY4= 0.8960000000000000    
GZ4= 0.5000000000000000E-01
GX5= -3.354000000000000    
GY5=-0.4160000000000000    
GZ5=  0.000000000000000    
GX6=  2.188000000000000    
GY6=-0.6840000000000001    
GZ6= 0.4730000000000000    
GX7=  3.068000000000000    
GY7=  1.364000000000000    
GZ7=-0.5530000000000000    
GX8=  3.750000000000000    
GY8=  1.533000000000000    
GZ8= -1.550000000000000    
GX9=  3.305000000000001    
GY9=  2.034000000000000    
GZ9= 0.5000000000000000    
GX10=  1.892000000000000    
GY10=-0.1130000000000000    
GZ10= -1.549000000000000    
GX11= 0.4410000000000000    
GY11=  1.827000000000000    
GZ11= -1.038000000000000    
GX12= 0.6700000000000000    
GY12=  1.540000000000000    
GZ12= 0.7000000000000000    
GX13=  1.416000000000000    
GY13= -1.373000000000000    
GZ13= 0.4610000000000000    
GX14=  3.083000000000000    
GY14= -1.165000000000000    
GZ14= 0.2760000000000000    
GX15=  2.235000000000000    
GY15=-0.2350000000000000    
GZ15=  1.404000000000000    
GX16=-0.3400000000000000    
GY16=-0.7080000000000000    
GZ16= 0.4620000000000000    
GX17=-0.5690000000000000    
GY17=-0.4210000000000000    
GZ17= -1.276000000000000    
GX18= -4.333000000000000    
GY18= 0.1500000000000000E-01
GZ18= 0.1990000000000000    
GX19= -3.356000000000000    
GY19=-0.8790000000000001    
GZ19=-0.9850000000000000    
GX20= -3.127000000000000    
GY20= -1.166000000000000    
GZ20= 0.7540000000000000    
STR=../input/METHIONINE_6-31G_scf.mld
[Atoms] Angs
C     1    6         1.9420000000        0.3580000000       -0.5700000000
C     2    6         0.6200000000        1.0680000000       -0.2790000000
C     3    6        -0.5190000000        0.0510000000       -0.2970000000
S     4   16        -2.0930000000        0.8960000000        0.0500000000
C     5    6        -3.3540000000       -0.4160000000        0.0000000000
N     6    7         2.1880000000       -0.6840000000        0.4730000000
C     7    6         3.0680000000        1.3640000000       -0.5530000000
O     8    8         3.7500000000        1.5330000000       -1.5500000000
O     9    8         3.3050000000        2.0340000000        0.5000000000
H    10    1         1.8920000000       -0.1130000000       -1.5490000000
H    11    1         0.4410000000        1.8270000000       -1.0380000000
H    12    1         0.6700000000        1.5400000000        0.7000000000
H    13    1         1.4160000000       -1.3730000000        0.4610000000
H    14    1         3.0830000000       -1.1650000000        0.2760000000
H    15    1         2.2350000000       -0.2350000000        1.4040000000
H    16    1        -0.3400000000       -0.7080000000        0.4620000000
H    17    1        -0.5690000000       -0.4210000000       -1.2760000000
H    18    1        -4.3330000000        0.0150000000        0.1990000000
H    19    1        -3.3560000000       -0.8790000000       -0.9850000000
H    20    1        -3.1270000000       -1.1660000000        0.7540000000
[GTO]
  1 0
 s    6  1.00
  0.3047524900D+04  0.1834737091D-02
  0.4573695200D+03  0.1403732293D-01
  0.1039486800D+03  0.6884262165D-01
  0.2921015500D+02  0.2321844388D+00
  0.9286663000D+01  0.4679413476D+00
  0.3163927000D+01  0.3623119882D+00
 s    3  1.00
  0.7868272300D+01 -0.1193324245D+00
  0.1881288500D+01 -0.1608541561D+00
  0.5442492600D+00  0.1143456443D+01
 s    1  1.00
  0.1687144800D+00  0.1000000000D+01
 p    3  1.00
  0.7868272300D+01  0.6899906693D-01
  0.1881288500D+01  0.3164239597D+00
  0.5442492600D+00  0.7443082892D+00
 p    1  1.00
  0.1687144800D+00  0.1000000000D+01
  
  2 0
 s    6  1.00
  0.3047524900D+04  0.1834737091D-02
  0.4573695200D+03  0.1403732293D-01
  0.1039486800D+03  0.6884262165D-01
  0.2921015500D+02  0.2321844388D+00
  0.9286663000D+01  0.4679413476D+00
  0.3163927000D+01  0.3623119882D+00
 s    3  1.00
  0.7868272300D+01 -0.1193324245D+00
  0.1881288500D+01 -0.1608541561D+00
  0.5442492600D+00  0.1143456443D+01
 s    1  1.00
  0.1687144800D+00  0.1000000000D+01
 p    3  1.00
  0.7868272300D+01  0.6899906693D-01
  0.1881288500D+01  0.3164239597D+00
  0.5442492600D+00  0.7443082892D+00
 p    1  1.00
  0.1687144800D+00  0.1000000000D+01
  
  3 0
 s    6  1.00
  0.3047524900D+04  0.1834737091D-02
  0.4573695200D+03  0.1403732293D-01
  0.1039486800D+03  0.6884262165D-01
  0.2921015500D+02  0.2321844388D+00
  0.9286663000D+01  0.4679413476D+00
  0.3163927000D+01  0.3623119882D+00
 s    3  1.00
  0.7868272300D+01 -0.1193324245D+00
  0.1881288500D+01 -0.1608541561D+00
  0.5442492600D+00  0.1143456443D+01
 s    1  1.00
  0.1687144800D+00  0.1000000000D+01
 p    3  1.00
  0.7868272300D+01  0.6899906693D-01
  0.1881288500D+01  0.3164239597D+00
  0.5442492600D+00  0.7443082892D+00
 p    1  1.00
  0.1687144800D+00  0.1000000000D+01
  
  4 0
 s    6  1.00
  0.2191710000D+05  0.1869240849D-02
  0.3301490000D+04  0.1423030646D-01
  0.7541460000D+03  0.6969623166D-01
  0.2127110000D+03  0.2384871083D+00
  0.6798960000D+02  0.4833072195D+00
  0.2305150000D+02  0.3380741536D+00
 s    6  1.00
  0.4237350000D+03 -0.2376770499D-02
  0.1007100000D+03 -0.3169300665D-01
  0.3215990000D+02 -0.1133170238D+00
  0.1180790000D+02  0.5609001177D-01
  0.4631100000D+01  0.5922551243D+00
  0.1870250000D+01  0.4550060955D+00
 s    3  1.00
  0.2615840000D+01 -0.2503731142D+00
  0.9221670000D+00  0.6695676310D-01
  0.3412870000D+00  0.1054506269D+01
 s    1  1.00
  0.1171670000D+00  0.1000000000D+01
 p    6  1.00
  0.4237350000D+03  0.4061009982D-02
  0.1007100000D+03  0.3068129986D-01
  0.3215990000D+02  0.1304519994D+00
  0.1180790000D+02  0.3272049985D+00
  0.4631100000D+01  0.4528509980D+00
  0.1870250000D+01  0.2560419989D+00
 p    3  1.00
  0.2615840000D+01 -0.1451048955D-01
  0.9221670000D+00  0.3102627765D+00
  0.3412870000D+00  0.7544824565D+00
 p    1  1.00
  0.1171670000D+00  0.1000000000D+01
  
  5 0
 s    6  1.00
  0.3047524900D+04  0.1834737091D-02
  0.4573695200D+03  0.1403732293D-01
  0.1039486800D+03  0.6884262165D-01
  0.2921015500D+02  0.2321844388D+00
  0.9286663000D+01  0.4679413476D+00
  0.3163927000D+01  0.3623119882D+00
 s    3  1.00
  0.7868272300D+01 -0.1193324245D+00
  0.1881288500D+01 -0.1608541561D+00
  0.5442492600D+00  0.1143456443D+01
 s    1  1.00
  0.1687144800D+00  0.1000000000D+01
 p    3  1.00
  0.7868272300D+01  0.6899906693D-01
  0.1881288500D+01  0.3164239597D+00
  0.5442492600D+00  0.7443082892D+00
 p    1  1.00
  0.1687144800D+00  0.1000000000D+01
  
  6 0
 s    6  1.00
  0.4173511500D+04  0.1834772199D-02
  0.6274579100D+03  0.1399462699D-01
  0.1429020900D+03  0.6858655195D-01
  0.4023432900D+02  0.2322408698D+00
  0.1282021300D+02  0.4690699496D+00
  0.4390437000D+01  0.3604551997D+00
 s    3  1.00
  0.1162636200D+02 -0.1149611854D+00
  0.2716279800D+01 -0.1691174879D+00
  0.7722184000D+00  0.1145851954D+01
 s    1  1.00
  0.2120315000D+00  0.1000000000D+01
 p    3  1.00
  0.1162636200D+02  0.6757974372D-01
  0.2716279800D+01  0.3239072986D+00
  0.7722184000D+00  0.7408951369D+00
 p    1  1.00
  0.2120315000D+00  0.1000000000D+01
  
  7 0
 s    6  1.00
  0.3047524900D+04  0.1834737091D-02
  0.4573695200D+03  0.1403732293D-01
  0.1039486800D+03  0.6884262165D-01
  0.2921015500D+02  0.2321844388D+00
  0.9286663000D+01  0.4679413476D+00
  0.3163927000D+01  0.3623119882D+00
 s    3  1.00
  0.7868272300D+01 -0.1193324245D+00
  0.1881288500D+01 -0.1608541561D+00
  0.5442492600D+00  0.1143456443D+01
 s    1  1.00
  0.1687144800D+00  0.1000000000D+01
 p    3  1.00
  0.7868272300D+01  0.6899906693D-01
  0.1881288500D+01  0.3164239597D+00
  0.5442492600D+00  0.7443082892D+00
 p    1  1.00
  0.1687144800D+00  0.1000000000D+01
  
  8 0
 s    6  1.00
  0.5484671700D+04  0.1831074396D-02
  0.8252349500D+03  0.1395017197D-01
  0.1880469600D+03  0.6844507786D-01
  0.5296450000D+02  0.2327143395D+00
  0.1689757000D+02  0.4701928990D+00
  0.5799635300D+01  0.3585208493D+00
 s    3  1.00
  0.1553961600D+02 -0.1107775519D+00
  0.3599933600D+01 -0.1480262626D+00
  0.1013761800D+01  0.1130767020D+01
 s    1  1.00
  0.2700058200D+00  0.1000000000D+01
 p    3  1.00
  0.1553961600D+02  0.7087426737D-01
  0.3599933600D+01  0.3397528370D+00
  0.1013761800D+01  0.7271585736D+00
 p    1  1.00
  0.2700058200D+00  0.1000000000D+01
  
  9 0
 s    6  1.00
  0.5484671700D+04  0.1831074396D-02
  0.8252349500D+03  0.1395017197D-01
  0.1880469600D+03  0.6844507786D-01
  0.5296450000D+02  0.2327143395D+00
  0.1689757000D+02  0.4701928990D+00
  0.5799635300D+01  0.3585208493D+00
 s    3  1.00
  0.1553961600D+02 -0.1107775519D+00
  0.3599933600D+01 -0.1480262626D+00
  0.1013761800D+01  0.1130767020D+01
 s    1  1.00
  0.2700058200D+00  0.1000000000D+01
 p    3  1.00
  0.1553961600D+02  0.7087426737D-01
  0.3599933600D+01  0.3397528370D+00
  0.1013761800D+01  0.7271585736D+00
 p    1  1.00
  0.2700058200D+00  0.1000000000D+01
  
 10 0
 s    3  1.00
  0.1873113700D+02  0.3349460400D-01
  0.2825394400D+01  0.2347269500D+00
  0.6401216900D+00  0.8137573301D+00
 s    1  1.00
  0.1612777600D+00  0.1000000000D+01
  
 11 0
 s    3  1.00
  0.1873113700D+02  0.3349460400D-01
  0.2825394400D+01  0.2347269500D+00
  0.6401216900D+00  0.8137573301D+00
 s    1  1.00
  0.1612777600D+00  0.1000000000D+01
  
 12 0
 s    3  1.00
  0.1873113700D+02  0.3349460400D-01
  0.2825394400D+01  0.2347269500D+00
  0.6401216900D+00  0.8137573301D+00
 s    1  1.00
  0.1612777600D+00  0.1000000000D+01
  
 13 0
 s    3  1.00
  0.1873113700D+02  0.3349460400D-01
  0.2825394400D+01  0.2347269500D+00
  0.6401216900D+00  0.8137573301D+00
 s    1  1.00
  0.1612777600D+00  0.1000000000D+01
  
 14 0
 s    3  1.00
  0.1873113700D+02  0.3349460400D-01
  0.2825394400D+01  0.2347269500D+00
  0.6401216900D+00  0.8137573301D+00
 s    1  1.00
  0.1612777600D+00  0.1000000000D+01
  
 15 0
 s    3  1.00
  0.1873113700D+02  0.3349460400D-01
  0.2825394400D+01  0.2347269500D+00
  0.6401216900D+00  0.8137573301D+00
 s    1  1.00
  0.1612777600D+00  0.1000000000D+01
  
 16 0
 s    3  1.00
  0.1873113700D+02  0.3349460400D-01
  0.2825394400D+01  0.2347269500D+00
  0.6401216900D+00  0.8137573301D+00
 s    1  1.00
  0.1612777600D+00  0.1000000000D+01
  
 17 0
 s    3  1.00
  0.1873113700D+02  0.3349460400D-01
  0.2825394400D+01  0.2347269500D+00
  0.6401216900D+00  0.8137573301D+00
 s    1  1.00
  0.1612777600D+00  0.1000000000D+01
  
 18 0
 s    3  1.00
  0.1873113700D+02  0.3349460400D-01
  0.2825394400D+01  0.2347269500D+00
  0.6401216900D+00  0.8137573301D+00
 s    1  1.00
  0.1612777600D+00  0.1000000000D+01
  
 19 0
 s    3  1.00
  0.1873113700D+02  0.3349460400D-01
  0.2825394400D+01  0.2347269500D+00
  0.6401216900D+00  0.8137573301D+00
 s    1  1.00
  0.1612777600D+00  0.1000000000D+01
  
 20 0
 s    3  1.00
  0.1873113700D+02  0.3349460400D-01
  0.2825394400D+01  0.2347269500D+00
  0.6401216900D+00  0.8137573301D+00
 s    1  1.00
  0.1612777600D+00  0.1000000000D+01
 
 
[MO]
 Sym=      1.1
 Ene=     -91.9563
 Spin= Alpha
 Occup=    2.000000
1 0.000002929789328
2 0.000026144991274
3 -0.000199143846627
4 0.000023498624072
5 0.000004963585872
6 -0.000005776415259
7 -0.000047771507405
8 -0.000076955062714
9 0.000015752708716
10 0.000016780316595
11 0.000117728087944
12 -0.000618945070320
13 -0.000040197557859
14 -0.000009399726327
15 0.000011141750508
16 0.000628035778852
17 0.000292911243246
18 -0.000088595176948
19 -0.000039441419812
20 -0.000244965587772
21 0.000909453418556
22 -0.000056527668271
23 0.000032015632388
24 0.000007626562166
25 0.000401130576219
26 0.000194551275064
27 0.000041409763410
28 0.99667360014506
29 0.012272525270658
30 -0.004013109457550
31 0.002583542094055
32 0.000033692923830
33 -0.000125631903231
34 -0.000023232256453
35 -0.000127584128388
36 0.000190528850463
37 0.000043245733837
38 0.000232981316472
39 -0.000454822487741
40 -0.000104351567298
41 -0.000029511583470
42 -0.000151649479276
43 0.000369424362539
44 0.000067819023013
45 0.000076339787253
46 0.000004090274677
47 -0.000201645594188
48 -0.000144086232190
49 -0.000001514804001
50 0.000000736453880
51 0.000011435917600
52 -0.000099196063230
53 -0.000000807376729
54 -0.000026321859193
55 -0.000005260353891
56 0.000041044205328
57 0.000142432138417
58 0.000026951718068
59 0.000005063802006
60 0.000060992412554
61 -0.000096940669005
62 -0.000022414365230
63 -0.000008245680198
64 0.000003334515526
65 0.000103265721712
66 -0.000063160154479
67 -0.000148212528994
68 0.000000737071230
69 0.000012501410007
70 -0.000083651194528
71 0.000003769019493
72 -0.000003106298782
73 0.000000245610663
74 -0.000006568055684
75 0.000024781923837
76 -0.000013628191938
77 -0.000001436738199
78 -0.000024294878890
79 0.000140859102949
80 0.000000421124828
81 -0.000000157736926
82 0.000000985423132
83 -0.000032043555937
84 -0.000026355336829
85 -0.000031503240661
86 -0.000007517817517
87 0.000045871826867
88 0.000069886477051
89 -0.000146109206805
90 0.000081987618854
91 -0.000106022259862
92 -0.000017954234930
93 0.000221051161676
94 0.000019515847468
95 0.000002199562651
96 -0.000027164175126
97 0.000002328835276
98 0.000006762608140
99 -0.000449597596929
100 -0.000006032022710
101 -0.000305193484243
102 -0.000024135064214
103 -0.000257065792974
104 -0.000002385674235
105 -0.000319686968361
106 -0.000005709222541
107 -0.000305770202931
 Sym=      2.1
 Ene=     -20.4554
 Spin= Alpha
 Occup=    2.000000
1 -0.000056154778971
2 -0.000675083568207
3 0.003071607273158
4 -0.000035182242427
5 -0.000098918595953
6 -0.000135457045437
7 -0.000617839028084
8 0.001028653310648
9 0.003399060684826
10 0.000014647028533
11 0.000071559048617
12 -0.001858450187305
13 -0.000098623423826
14 0.000006079812566
15 0.000001777646007
16 -0.000302286917894
17 0.001095861238628
18 -0.000667376414657
19 -0.000012165069107
20 -0.000088750149763
21 0.000815746535591
22 0.000028844079967
23 0.000002834258449
24 0.000018214005433
25 0.000342180813556
26 0.000270352096985
27 0.000106906337168
28 -0.000000542679261
29 0.000003606414898
30 -0.000005460750106
31 -0.000054490766304
32 0.000004077146102
33 -0.000001665630829
34 -0.000002047338912
35 -0.000020093038214
36 0.000011547034578
37 0.000010593670682
38 -0.000119614810200
39 -0.000042947729450
40 -0.000017335687700
41 -0.000000248135443
42 -0.000005594543023
43 -0.000023390655721
44 -0.000013437188624
45 0.000008637381961
46 0.000001598838754
47 0.000058796206958
48 -0.000069162962633
49 -0.000007256291160
50 0.000008718480322
51 0.000046716235538
52 -0.001143912960030
53 -0.000047572781148
54 -0.000031354523004
55 0.000026128584375
56 0.000751138207839
57 -0.000589168537985
58 0.000054108270023
59 0.000162107339917
60 0.000262513917262
61 0.005443674917206
62 -0.000038688718943
63 -0.000022139103006
64 0.000006061327044
65 0.004643681727202
66 0.000862690645738
67 -0.007331937901906
68 0.99586244272358
69 0.023418007295884
70 -0.015344989359441
71 -0.001389399972833
72 -0.000457709391969
73 0.001817604090669
74 0.002792860046562
75 0.000767911970026
76 -0.003956967663717
77 -0.003324259654038
78 -0.000560783418735
79 0.002012288617326
80 0.000067130430837
81 0.000094777283443
82 0.000080073660154
83 -0.001032521157293
84 -0.000869704578294
85 0.000079391342205
86 0.000135087677364
87 0.001140411202363
88 0.000029228501914
89 -0.000634497365265
90 0.000043921478583
91 0.000412387759381
92 0.000110180290962
93 0.000112000077547
94 -0.000017630410166
95 -0.000507777489277
96 0.000017451735595
97 0.000296032050488
98 -0.000042482136985
99 0.000001913294577
100 -0.000023929305220
101 0.000044552787977
102 0.000011126864820
103 0.000034160292751
104 -0.000007540104334
105 -0.000014531076313
106 -0.000007477550625
107 -0.000027574577757
 Sym=      3.1
 Ene=     -20.4441
 Spin= Alpha
 Occup=    2.000000
1 -0.000069977468922
2 -0.000752531495016
3 0.003986802039501
4 -0.000249883264314
5 -0.000225775307695
6 0.000029187789877
7 0.002135241764461
8 0.001267830591129
9 -0.002166191869878
10 0.000037179810929
11 0.000301158852589
12 -0.000685380403249
13 0.000054683991771
14 0.000019851680481
15 -0.000052860447878
16 -0.000785980379444
17 -0.000770204810651
18 0.000788430865540
19 -0.000007127882977
20 -0.000071808781107
21 -0.000172079012725
22 -0.000078338786051
23 0.000023899717171
24 0.000031558356613
25 0.000290519097996
26 -0.000401978598280
27 -0.000409455495473
28 0.000001386577727
29 -0.000003908695455
30 0.000031690040764
31 0.000307034549543
32 -0.000011640437989
33 0.000003609089572
34 -0.000001391597101
35 0.000082567217939
36 -0.000021495011318
37 0.000003759719455
38 -0.000026206411664
39 -0.000186019264715
40 -0.000010207516890
41 0.000003863121367
42 0.000035361559794
43 -0.000169495182288
44 -0.000002701141092
45 0.000006212159991
46 0.000000411572088
47 -0.000047850035987
48 -0.000071194414973
49 -0.000007310707022
50 0.000017201895547
51 0.000197467349804
52 -0.000122230504531
53 0.000076993825298
54 0.000048256281588
55 -0.000016343074580
56 -0.000968038929888
57 -0.000305981744330
58 0.000105030082454
59 0.000117486415828
60 -0.000011867459704
61 0.003881350715459
62 0.000094611804491
63 0.000084581484885
64 0.000029532985370
65 0.001818311456201
66 0.004819426072973
67 0.007271634152221
68 0.003291005643993
69 -0.000411088132758
70 0.001975201210750
71 0.000095583264220
72 0.000070393717974
73 -0.000041919316370
74 -0.001052150510272
75 -0.001081367007469
76 -0.000296323167894
77 0.99588549904739
78 0.023225663857166
79 -0.014776734011264
80 -0.000572177922001
81 -0.001322480815501
82 -0.001717380583608
83 0.000976833700115
84 0.002658557950555
85 0.004020570255212
86 -0.000416507041036
87 -0.000436046022507
88 0.000198973519125
89 0.000509945701037
90 -0.000032647631527
91 0.000004360945696
92 -0.000099922812194
93 -0.000315549110318
94 0.000222547057059
95 0.000195025430586
96 0.000021533826427
97 0.000085064687978
98 -0.000005729369643
99 -0.000022376466833
100 -0.000055180826521
101 -0.000277244229543
102 0.000008405354452
103 0.000008883314962
104 0.000008226478505
105 -0.000022028328685
106 0.000005749694652
107 -0.000014759697260
 Sym=      4.1
 Ene=     -15.7587
 Spin= Alpha
 Occup=    2.000000
1 0.000001675214829
2 -0.000464189057716
3 0.003508435219529
4 0.000054688656516
5 -0.000175772246613
6 0.000119244783588
7 0.000287655346816
8 -0.001948798849398
9 0.001399720105469
10 -0.000030272276359
11 -0.000396522933450
12 0.000722481050323
13 -0.000095367222205
14 0.000180763990393
15 -0.000059287892884
16 -0.000118179071719
17 -0.000593591502903
18 0.000124248830958
19 0.000014485461876
20 0.000034482439679
21 -0.000507316013876
22 -0.000046934451949
23 -0.000010976956505
24 -0.000078589720768
25 -0.000438892840007
26 -0.000148928051975
27 0.000364394184729
28 -0.000001170696814
29 -0.000001725949321
30 -0.000041354533663
31 -0.000019703176741
32 0.000003469250147
33 -0.000005370328750
34 0.000001944606684
35 -0.000025268355813
36 0.000033358493380
37 -0.000008015063269
38 -0.000034193504421
39 -0.000010809595085
40 -0.000022887949849
41 0.000002456158103
42 0.000027379451213
43 -0.000083175784343
44 0.000004010054847
45 0.000001347567824
46 -0.000001773940383
47 -0.000036791859754
48 0.000006944362244
49 0.000012969190392
50 0.99604885730232
51 0.024405504033456
52 -0.014441639745076
53 -0.000032069461894
54 -0.000159780599837
55 0.000031428026733
56 0.000302283849991
57 -0.000762606404331
58 0.000952210119178
59 -0.000026649921908
60 -0.000363844615757
61 0.000717307255679
62 0.000131269567106
63 0.000149598287818
64 -0.000034982275800
65 -0.000593966123562
66 -0.000121809205919
67 0.000418997412113
68 -0.000003496723190
69 -0.000030510080703
70 0.000291335667538
71 0.000003987989019
72 -0.000037047359899
73 0.000017570961939
74 -0.000040273982499
75 0.000093642327417
76 0.000000658164674
77 0.000007902145719
78 0.000141074812919
79 -0.000552406186058
80 -0.000036255406657
81 -0.000002183042921
82 0.000008680535997
83 0.000266932875348
84 0.000207798284551
85 0.000025788638141
86 -0.000229163121745
87 -0.000255533212284
88 -0.000029231249223
89 0.000454150556516
90 -0.000030889481507
91 -0.000251912802757
92 0.000264156090700
93 0.002236016700908
94 0.000349882735766
95 0.001824392500834
96 0.000314299659146
97 0.001851694926799
98 0.000032543662391
99 -0.000474378310420
100 0.000110190653357
101 0.000053092539578
102 0.000001506454522
103 -0.000013934163264
104 0.000006822802888
105 0.000016607810687
106 -0.000001139228034
107 0.000031731085934
 Sym=      5.1
 Ene=     -11.3259
 Spin= Alpha
 Occup=    2.000000
1 0.99604503301470
2 0.027300084287964
3 -0.025289573546658
4 -0.000153892947924
5 -0.000795348868813
6 0.000912593388934
7 0.000514053821817
8 -0.000952695386242
9 -0.002834087957400
10 0.005735235086090
11 -0.000416786054132
12 0.006384822477449
13 0.000149636579420
14 0.000024415453019
15 -0.000057140462829
16 0.003041858370144
17 -0.001845601872106
18 0.000359374323372
19 -0.000309241689567
20 -0.000395593122973
21 0.000516922771203
22 -0.000178220938262
23 0.000034534096935
24 0.000077257560431
25 0.000467265489818
26 -0.000598591439812
27 -0.000629029729077
28 -0.000001589613043
29 -0.000020876891873
30 -0.000115505070722
31 0.000624090998201
32 -0.000012729347765
33 0.000005842509514
34 -0.000002346550797
35 0.000053872851525
36 -0.000040573248766
37 0.000011464435201
38 0.000642733667921