[Molden Format]
[Molpro variables]
_NUMVAR=  793.0000000000000    
_AVOGAD= 0.6022136736000000E+24
_BOLTZ= 0.1380658000000000E-22
_CLIGHT=  29979245800.00000    
_EV2006= 0.3674930886769165E-01
_EV= 0.3674932534394180E-01
_ENULL= 0.8854187817000000E-11
_KJOULE= 0.3808798324128737E-03
_KJOULE/MOL= 0.3808798324128737E-03
_CM= 0.4556335267302901E-05
_CM-1= 0.4556335267302901E-05
_DEB2SI= 0.3335641000000000E-29
_AMU2AU=  1822.888390000000    
_KCAL= 0.1593601117815568E-02
_KCAL/MOL= 0.1593601117815568E-02
_KELVIN2006= 0.3166828861084835E-05
_KELVIN= 0.3166814820820034E-05
_JOULE= 0.4359748200000000E-17
_HERTZ2006= 0.1519829850815779E-15
_HERTZ= 0.1519829846011223E-15
_HZ2006= 0.1519829850815779E-15
_HZ= 0.1519829846011223E-15
_JPCAL=  4.184000000000000    
_PLANCK= 0.6626075540000000E-33
_TOA2006= 0.5291772490000000    
_TOA= 0.5291772090000000    
_TOANG2006= 0.5291772490000000    
_TOANG= 0.5291772090000000    
_TORAD= 0.1745329251994330E-01
_TOCM=  219474.6306700000    
_TODEBYE=  2.541580000000000    
_TOEV2006=  27.21139610000000    
_TOE= 0.4803242000000000E-09
_TOEV=  27.21138390000000    
_TOHERTZ2006=  6579683899900000.    
_TOHERTZ=  6579683920700000.    
_TOHZ2006=  6579683899900000.    
_TOHZ=  6579683920700000.    
_TOK2006=  315773.3000000000    
_TOK=  315774.7000000000    
_TOKCAL=  627.5096000000000    
_TOKELVIN2006=  315773.3000000000    
_TOKELVIN=  315774.7000000000    
_TOKJ=  2625.500000000000    
_TOKJOULE=  2625.500000000000    
_TOKG= 0.1660565586000000E-26
_ANG2006=  1.889725988578923    
_ANG=  1.889726131421507    
_ANGSTROM2006=  1.889725988578923    
_ANGSTROM=  1.889726131421507    
_RPAREF=  0.000000000000000    
_RPADISS=  0.000000000000000    
_IGNORE_UNDEF=  2.000000000000000    
_STRICTCHECK=  0.000000000000000    
_SEW_ONEEL=  0.000000000000000    
_CPPDONE=FALSE
_DKROLL_DONE=  0.000000000000000    
_FOCKDONE=TRUE
_GRADONE=FALSE
_HESSDONE=FALSE
_INTDONE=TRUE
_SCFDONE=TRUE
_MODUL_BLOCK=FALSE
_MODUL_CUDA=FALSE
_MODUL_SLATER=FALSE
_MODUL_MRCC=FALSE
_MODUL_NBO6=FALSE
_MODUL_NECI=TRUE
_MODUL_AIMS=TRUE
_MRCC_EXEC=
_FITC_AO_SAVED=FALSE
_FITC_MO_SAVED=FALSE
_SHARED_FS=TRUE
_LSTYP=SEWARD
_INTYP=INTS
_GEOMTYP=ZMAT
_GRADTYP=ALASKA
_DIRECT=FALSE
_DKHO= -1.000000000000000    
_SYNCM=  0.000000000000000    
_BASIS=$BSET
_ZORIENT=  1.000000000000000    
_NELEC=  15.00000000000000    
!SPIN=  1.000000000000000    
_QSDSTEP=  0.000000000000000    
_QSDIRC=  0.000000000000000    
_PROGRAM=HF-SCF
_CPUSTEP= 0.3000000000000001E-01
_SYSSTEP=  0.000000000000000    
_WALLSTEP= 0.3000000000000000E-01
!DFSCF=  0.000000000000000    
!SCSGRD=  0.000000000000000    
_BASINP=  610.0000000000000    
_CPUTOT= 0.1400000000000000    
_CPUSORT= 0.1000000000000001E-01
_SYSSORT= 0.3000000000000000E-01
_WALLSORT= 0.3999999910593033E-01
_DFTEXFAC=  1.000000000000000    
_DMX= 0.2055285230822719    
_DMY= 0.2007687106227904    
_DMZ=-0.8917954253121252E-01
_DMX_SCF= 0.2055285230822719    
_DMY_SCF= 0.2007687106227904    
_DMZ_SCF=-0.8917954253121252E-01
_EHOMO=-0.4524698019492381    
_ELUMO= 0.8025943281173854E-01
_ENERGY= -77.27310309603638    
_ENUC=  26.33716290649793    
_GRADEXFAC=  9999.000000000000    
_GRADMETHOD=  2.000000000000000    
_NMRMETHOD=  0.000000000000000    
!GRID_FREEZE= -1.000000000000000    
_ITERATIONS=  13.00000000000000    
_LASTNELEC=  15.00000000000000    
_LASTSPIN=  1.000000000000000    
_LASTSYM=  1.000000000000000    
_MPP_PROG=  0.000000000000000    
_NPROC_MPP=  1.000000000000000    
_NPROC_MPPX=  1.000000000000000    
_NPROC_SMP=  1.000000000000000    
_NUMSTEP=  0.000000000000000    
_ORBITAL=  2100.200000000000    
_PI=  3.141592653589793    
_SEIG_MIN= 0.1404877644734823E-01
_SEWPROP=TRUE
_STATUS=  1.000000000000000    
_SYSTOT= 0.5000000000000000E-01
_VERSION=  2012001.000000000    
_WALLTOT= 0.1800000000000000    
_DATE=10-Nov-15
_LASTORB=RHF
_MACHINE=Linux-3.2.0-93-generic/sce-chem-c01105(x86_64) 64 bit serial version
_OUTPUT=/home/s1267651/phd_mini_30Sept2015/amino_acids/molpro2/molpro_scf.xml
_PGROUP=C1
_TIME=11:32:48
_LIBMOL=/usr/local/molpro/molprop_2012_1_Linux_x86_64_i8/lib/
!VIBCNT=  0.000000000000000    
!RGHFCNT=  0.000000000000000    
!SURFREC=  0.000000000000000    
!POLYREC=  0.000000000000000    
!DIPREC=  0.000000000000000    
!VSCFREC=  0.000000000000000    
!VCIREC=  0.000000000000000    
!PVCIREC=  0.000000000000000    
!VMP2REC=  0.000000000000000    
!VMCSCFREC=  0.000000000000000    
!VMRCIREC=  0.000000000000000    
!VIBINFO=  0.000000000000000    
!GAREC=  0.000000000000000    
!SCFORB=  21002.00000000000    
!NEWMOL= -1.000000000000000    
!NEWSYM= -1.000000000000000    
_SLFILES=slscratch
_NGSSTO=  9.000000000000000    
_SIN=SIN
_COS=COS
_TAN=TAN
_ACOS=ACOS
_ASIN=ASIN
_ATAN=ATAN
_COSH=COSH
_SINH=SINH
_TANH=TANH
_ABS=ABS
_MOD=MOD
_ERF=ERF
_REFC=REFC
_ERFC=ERFC
_HYPOT=HYPOT
_J0=J0
_J1=J1
_JN=JN
_GAMMA=GAMMA
_LGAMMA=LGAMMA
_Y0=Y0
_Y1=Y1
_YN=YN
_EXP=EXP
_LOG=LOG
_LOG10=LOG10
_SQRT=SQRT
_INT=INT
_NINT=NINT
_MAX=MAX
_MIN=MIN
_COSMO=  0.000000000000000    
_COSMOIT=  0.000000000000000    
_COSMOES=  0.000000000000000    
_COSMOEDS=  0.000000000000000    
_COSMOEC=  0.000000000000000    
_COSMOEDCORR=  0.000000000000000    
_FEPSI=  1.000000000000000    
_SL_IsMM=  0.000000000000000    
_SL_NSYM=  1.000000000000000    
_SL_System_BitSw=  0.000000000000000    
_SL_Unique_atoms=  0.000000000000000    
_SL_GRAD=  0.000000000000000    
_SL_MAXUPD_Hess=  5.000000000000000    
_SL_N_PRINT_COD=  5.000000000000000    
_SL_PRINT_CODES=  0.000000000000000    
_SL_BasType=  0.000000000000000    
_SL_Energy_Pred=  0.000000000000000    
_SL_New_Coords=  0.000000000000000    
_SL_Total_Nuclea=  0.000000000000000    
_SL_Highest_Mltp=  0.000000000000000    
_SL_Ref_Geom=  0.000000000000000    
_SL_Symmetry_ope=  1.000000000000000    
_SL_agrad=  0.000000000000000    
_SL_GrdMax=  0.000000000000000    
_SL_GrdNorm=  0.000000000000000    
_SL_GrdRMS=  0.000000000000000    
_SL_Hss_Q=  0.000000000000000    
_SL_Hss_X=  0.000000000000000    
_SL_BMxOld=  0.000000000000000    
_SL_KtB=  0.000000000000000    
!LATTICE= -1.000000000000000    
!NEWLATTICE=  0.000000000000000    
!LATGRAD_VAR=FALSE
!SEW_LATTICE=  1.000000000000000    
!LOCAL=  0.000000000000000    
!SAVEDOM= -1.000000000000000    
!RESTDOM= -1.000000000000000    
!SAVEDOM_HF= -1.000000000000000    
!RESTDOM_HF= -1.000000000000000    
!HESSREC=  0.000000000000000    
!FREQREC=  0.000000000000000    
!NMODREC=  0.000000000000000    
!GTASKS=  0.000000000000000    
!HTASKS=  0.000000000000000    
!THRCHG= 0.1000000000000000    
!DEBUG= -1.000000000000000    
!CFIT_CPHF=  0.000000000000000    
!RDOMAUX_CPHF=  3.000000000000000    
!THRAO_CPHF= 0.1000000000000000E-09
!THRMO_CPHF= 0.1000000000000000E-08
!THROV_CPHF= 0.1000000000000000E-11
!THRSW_CPHF= 0.1000000000000000E-09
!THRPROD_CPHF= 0.1000000000000000E-08
!THRAOPR_CPHF= 0.1000000000000000E-11
!CFIT_SCFGRD=  0.000000000000000    
!RDOMAUX_SCFGRD=  5.000000000000000    
!THRAO_SCFGRD= 0.1000000000000000E-09
!THRMO_SCFGRD= 0.1000000000000000E-08
!THROV_SCFGRD= 0.1000000000000000E-11
!THRSW_SCFGRD= 0.1000000000000000E-09
!THRPROD_SCFGRD= 0.1000000000000000E-08
!THRAOPR_SCFGRD= 0.1000000000000000E-11
!LOCFIT_SCF=  0.000000000000000    
!LOCFIT_MP2= -1.000000000000000    
_RIDOM=  0.000000000000000    
!CC2_METHOD=  0.000000000000000    
_BASIS2006=FALSE
_SVDDEL= -1.000000000000000    
_SVDDELA= -1.000000000000000    
_SVDDELP= -1.000000000000000    
_SVDDELF= -1.000000000000000    
_SVDDELS= -1.000000000000000    
_SVDDEL_ABS= -1.000000000000000    
_SVDDELA_ABS= -1.000000000000000    
_SVDDELP_ABS= -1.000000000000000    
_SVDDELF_ABS= -1.000000000000000    
_SVDDELS_ABS= -1.000000000000000    
_MAXBASIS=  0.000000000000000    
!OPT_CONICAL=  0.000000000000000    
!CLEARSP_JGRID=  0.000000000000000    
_4EXT_NDISKS=  1.000000000000000    
!ZMP=  0.000000000000000    
_MAXIT_ZMP=  500.0000000000000    
_MAXDIS_ZMP=  100.0000000000000    
_ACCU_ZMP=  14.00000000000000    
_SHIFTA_ZMP= -100.0000000000000    
!EMBEDFLAG=  1.000000000000000    
!EMBED=FALSE
!EMBED_F12=FALSE
!EMBEDNUC=  0.000000000000000    
_EMBEDENERGY=  0.000000000000000    
_KSPACETIME=  0.000000000000000    
_RSPACETIME=  0.000000000000000    
!EMBED_DFC=FALSE
!NUM_VOIDS=  0.000000000000000    
_IBODY=  0.000000000000000    
_EMBE_TOTAL=  0.000000000000000    
_EMBE_HF=  0.000000000000000    
_EMBE_CORR=  0.000000000000000    
!EDFT=  0.000000000000000    
_IFASTLATGRAD=  0.000000000000000    
_SINDEX=  0.000000000000000    
BSET=6-31G
GX1=  1.723000000000001    
GY1=-0.6060000000000002    
GZ1= 0.5530000000000000    
GX2= 0.9379999999999999    
GY2= 0.4930000000000000    
GZ2=  1.268000000000000    
GX3= 0.8090000000000001    
GY3= 0.2240000000000000    
GZ3=  2.314000000000000    
GX4=  1.483000000000000    
GY4=  1.431000000000000    
GZ4=  1.199000000000000    
GX5=  1.851000000000000    
GY5=-0.3370000000000000    
GZ5=-0.4940000000000002    
TITLE=input/molpro_scf.mld
[Atoms] Angs
C     1    6         1.7230000000       -0.6060000000        0.5530000000
C     2    6         0.9380000000        0.4930000000        1.2680000000
H     3    1         0.8090000000        0.2240000000        2.3140000000
H     4    1         1.4830000000        1.4310000000        1.1990000000
H     5    1         1.8510000000       -0.3370000000       -0.4940000000
[GTO]
  1 0
 s    6  1.00
  0.3047524900D+04  0.1834737091D-02
  0.4573695200D+03  0.1403732293D-01
  0.1039486800D+03  0.6884262165D-01
  0.2921015500D+02  0.2321844388D+00
  0.9286663000D+01  0.4679413476D+00
  0.3163927000D+01  0.3623119882D+00
 s    3  1.00
  0.7868272300D+01 -0.1193324245D+00
  0.1881288500D+01 -0.1608541561D+00
  0.5442492600D+00  0.1143456443D+01
 s    1  1.00
  0.1687144800D+00  0.1000000000D+01
 p    3  1.00
  0.7868272300D+01  0.6899906693D-01
  0.1881288500D+01  0.3164239597D+00
  0.5442492600D+00  0.7443082892D+00
 p    1  1.00
  0.1687144800D+00  0.1000000000D+01
  
  2 0
 s    6  1.00
  0.3047524900D+04  0.1834737091D-02
  0.4573695200D+03  0.1403732293D-01
  0.1039486800D+03  0.6884262165D-01
  0.2921015500D+02  0.2321844388D+00
  0.9286663000D+01  0.4679413476D+00
  0.3163927000D+01  0.3623119882D+00
 s    3  1.00
  0.7868272300D+01 -0.1193324245D+00
  0.1881288500D+01 -0.1608541561D+00
  0.5442492600D+00  0.1143456443D+01
 s    1  1.00
  0.1687144800D+00  0.1000000000D+01
 p    3  1.00
  0.7868272300D+01  0.6899906693D-01
  0.1881288500D+01  0.3164239597D+00
  0.5442492600D+00  0.7443082892D+00
 p    1  1.00
  0.1687144800D+00  0.1000000000D+01
  
  3 0
 s    3  1.00
  0.1873113700D+02  0.3349460400D-01
  0.2825394400D+01  0.2347269500D+00
  0.6401216900D+00  0.8137573301D+00
 s    1  1.00
  0.1612777600D+00  0.1000000000D+01
  
  4 0
 s    3  1.00
  0.1873113700D+02  0.3349460400D-01
  0.2825394400D+01  0.2347269500D+00
  0.6401216900D+00  0.8137573301D+00
 s    1  1.00
  0.1612777600D+00  0.1000000000D+01
  
  5 0
 s    3  1.00
  0.1873113700D+02  0.3349460400D-01
  0.2825394400D+01  0.2347269500D+00
  0.6401216900D+00  0.8137573301D+00
 s    1  1.00
  0.1612777600D+00  0.1000000000D+01
 
 
[MO]
 Sym=      1.1
 Ene=     -11.3006
 Spin= Alpha
 Occup=    2.000000
1 0.99640794414724
2 0.022552188758265
3 -0.012338333778511
4 -0.000536446425324
5 0.000899575105886
6 -0.000907850407012
7 0.001349834352340
8 -0.002274332497276
9 0.000970776344275
10 0.009051738046467
11 -0.000321002292105
12 0.003729030750710
13 -0.000044352110708
14 0.000102779575342
15 0.000081286712565
16 0.001045568863412
17 -0.001642748522562
18 -0.001388508080418
19 -0.000113904424886
20 0.000319641638623
21 -0.000215158537631
22 0.000381176830604
23 -0.000124040316987
24 0.003405877393611
 Sym=      2.1
 Ene=     -11.2647
 Spin= Alpha
 Occup=    2.000000
1 -0.009238742425477
2 -0.000724676168612
3 0.004251615327990
4 0.000118301097702
5 -0.000130150492069
6 -0.000024046537504
7 -0.000928912971297
8 0.001610273996108
9 0.001303056852324
10 0.99628677100395
11 0.024041837959507
12 -0.015061687476484
13 0.001038617186325
14 0.000034848185116
15 0.000588748351972
16 -0.002452612460232
17 0.000684433037017
18 -0.000701651754736
19 -0.000070875924643
20 0.003218995391876
21 -0.000095794407808
22 0.003269596498120
23 -0.000149689550830
24 0.000189743973519
 Sym=      3.1
 Ene=      -0.9946
 Spin= Alpha
 Occup=    2.000000
1 -0.13102490995779
2 0.26710807373250
3 0.20540897193361
4 -0.046670361029556
5 0.11295594707989
6 0.011560427858432
7 -0.003877435887858
8 0.029316046254454
9 -0.010933097596811
10 -0.16215376394779
11 0.31632361715062
12 0.29414915042278
13 0.078606718985320
14 -0.040676723079691
15 -0.010263319479822
16 0.027754045615539
17 -0.008246896943125
18 0.004840747957326
19 0.10490669605949
20 0.020943935472283
21 0.11179796635074
22 0.020035057339409
23 0.097807500010879
24 0.021511442637488
 Sym=      4.1
 Ene=      -0.7803
 Spin= Alpha
 Occup=    2.000000
1 -0.13067709183822
2 0.27014309778893
3 0.28782582099362
4 0.029713024345217
5 0.040896625065894
6 -0.18385664009525
7 0.009169369758222
8 0.036483573155092
9 -0.049542356182861
10 0.10214219563843
11 -0.20299180677218
12 -0.24669742905559
13 0.011527843120339
14 -0.10831751332646
15 -0.15428611601118
16 -0.005896273422399
17 -0.029973150786763
18 -0.042058196194212
19 -0.14936285980313
20 -0.068417467243095
21 -0.12959287910863
22 -0.062189296803199
23 0.22193476568352
24 0.11535267327279
 Sym=      5.1
 Ene=      -0.5852
 Spin= Alpha
 Occup=    2.000000
1 0.029826252385365
2 -0.065197358953739
3 -0.067745252547444
4 0.082941870692770
5 -0.015400286426309
6 -0.16069520961524
7 0.026473114795596
8 -0.010345849571797
9 -0.062956082726178
10 -0.003401486198130
11 0.007603814225018
12 0.000413154998739
13 0.10575636389107
14 0.38716042719230
15 -0.15381368022941
16 0.042255447646173
17 0.16561726714668
18 -0.070535870057657
19 -0.16535495612356
20 -0.12789396951205
21 0.27500404822531
22 0.22276708217725
23 0.070076062770271
24 0.054072299438469
 Sym=      6.1
 Ene=      -0.5219
 Spin= Alpha
 Occup=    2.000000
1 0.015016994785497
2 -0.032038920761403
3 -0.050094588528439
4 0.15185927803153
5 -0.13867797226482
6 -0.31731209413732
7 0.058617175430000
8 -0.054713958760674
9 -0.13357667078195
10 0.009766430350221
11 -0.018895639230186
12 -0.042293320258222
13 -0.15836311587717
14 0.11267617762133
15 0.33667304837375
16 -0.071860275443500
17 0.053886790683842
18 0.16396475964868
19 0.21911140916121
20 0.19264515201275
21 -0.015563702556080
22 -0.012122253526162
23 0.20339944253894
24 0.19279820525649
 Sym=      7.1
 Ene=      -0.3668
 Spin= Alpha
 Occup=    2.000000
1 -0.054066546591971
2 0.11470826256011
3 0.16540908790738
4 0.26919662948831
5 -0.012820928609140
6 0.18537103185446
7 0.25392540732323
8 -0.017272582628481
9 0.13138758546960
10 0.057814579757133
11 -0.13310162837910
12 -0.15104493904581
13 0.28875879725575
14 0.035981399715790
15 0.18965049936976
16 0.29177644728419
17 -0.004342261261680
18 0.17333561802469
19 0.017666183704088
20 -0.002994133929750
21 0.036841483777586
22 0.027220181615574
23 -0.036847447133373
24 -0.039513545295875
 Sym=      8.1
 Ene=      -0.4525
 Spin= Alpha
 Occup=    1.000000
1 0.083072017727209
2 -0.17907365945739
3 -0.33888974181102
4 0.073879750255257
5 0.53918867794383
6 -0.12204381474352
7 0.081178206133930
8 0.38692831734715
9 -0.063248789410747
10 -0.007929391377626
11 0.020195618844997
12 -0.018858942064681
13 0.10600420308306
14 -0.12025606789327
15 0.020519506370075
16 0.086080746782665
17 -0.068873296061829
18 0.049881343436487
19 0.051540154842952
20 0.048985181627896
21 -0.066425433523513
22 -0.10588201260863
23 0.10391416114483
24 0.11273494370892
 Sym=      9.1
 Ene=       0.0803
 Spin= Alpha
 Occup=    0.000000
1 -0.015369265580844
2 0.002651040688479
3 0.20686576137353
4 0.37578405325802
5 0.066260786575375
6 0.11147771690303
7 0.52369205489387
8 0.13501265567217
9 0.18186533899625
10 -0.039379232387211
11 0.055621767088085
12 0.28746942877616
13 -0.29749801233869
14 0.049287105649788
15 -0.11936348075921
16 -0.45350630800222
17 0.090462335926783
18 -0.18568511799583
19 -0.042266623194528
20 -0.057216372729404
21 -0.084201614589806
22 -0.16709710849534
23 -0.048487932203707
24 -0.083458968631308
 Sym=     10.1
 Ene=       0.2583
 Spin= Alpha
 Occup=    0.000000
1 0.049899340582026
2 -0.096095145754778
3 -0.75592478498470
4 -0.018248507818570
5 -0.015708092398676
6 0.18185447406272
7 -0.013132443030042
8 -0.055798301613189
9 0.83825732375685
10 0.092022989816725
11 -0.080843004744924
12 -1.65536282522327
13 -0.073713568932349
14 -0.11302440915812
15 -0.089149344642386
16 -0.38316519733451
17 -0.36305229148061
18 -0.56924735218943
19 -0.002031395489337
20 0.98870330097320
21 0.009936154766938
22 1.30582177081576
23 0.012426288901370
24 1.32818390232184
 Sym=     11.1
 Ene=       0.2910
 Spin= Alpha
 Occup=    0.000000
1 0.087571647836790
2 -0.061512185999220
3 -1.64168944474305
4 -0.000748419894109
5 -0.091729199906948
6 0.19891209894021
7 0.099562785402485
8 -0.56391569367730
9 0.54121070239569
10 -0.096408220963217
11 0.059939506618177
12 1.81628014681149
13 0.042854856002745
14 -0.005712662576564
15 0.11941939170958
16 0.34884016318451
17 -0.13485029383131
18 0.24714759279426
19 -0.029010408431730
20 -1.21139843688246
21 0.003648873584348
22 -0.70255876246228
23 0.039903368532846
24 1.65752341240123
 Sym=     12.1
 Ene=       0.3241
 Spin= Alpha
 Occup=    0.000000
1 -0.024204016496482
2 0.014996855811315
3 0.51031069255548
4 -0.003594119337794
5 0.032267181605010
6 -0.026947706600207
7 0.055575256007993
8 0.39257664388917
9 -0.31667836951976
10 0.009241853126803
11 0.005277556611211
12 -0.22796494667147
13 -0.15032487396280
14 -0.22097757527725
15 0.21721112873360
16 -0.67524166838362
17 -0.90076317489093
18 1.06371890101212
19 -0.039346834963163
20 -1.62379633003077
21 0.030519580291561
22 1.64872737191473
23 0.017685347653285
24 -0.45969382643040
 Sym=     13.1
 Ene=       0.3957
 Spin= Alpha
 Occup=    0.000000
1 -0.083976575789751
2 0.11648536144840
3 1.54071626389078
4 -0.12765717208632
5 0.12187093770425
6 0.21585642344986
7 -0.94831952903350
8 1.05301569714783
9 1.03349476177442
10 0.069846393271277
11 -0.053318570399671
12 -1.37483882504811
13 -0.062463742141714
14 0.21380234071379
15 0.15621353335183
16 -0.70824490777179
17 1.45400912841848
18 0.87618169024924
19 -0.072010210462205
20 -0.25525442511706
21 -0.050225379850616
22 -0.51918530785151
23 0.079890089286227
24 0.51303689688565
 Sym=     14.1
 Ene=       0.7222
 Spin= Alpha
 Occup=    0.000000
1 0.026167882819226
2 -0.27123042794936
3 0.42707993322499
4 -0.12119195901518
5 0.86477941332411
6 0.12916502389481
7 0.14547138730654
8 -0.99132710510999
9 -0.34402963972635
10 0.012330624499268
11 -0.071134103085747
12 0.52210600167952
13 0.20285072368458
14 -0.21094349682901
15 -0.24199460763745
16 -0.19572365629555
17 0.36740137054928
18 0.53179093761947
19 -0.20103103016080
20 -0.14707366408722
21 -0.073140435193540
22 0.014732262015495
23 -0.085800261521937
24 -0.042136169643158
 Sym=     15.1
 Ene=       0.7475
 Spin= Alpha
 Occup=    0.000000
1 0.013496022315952
2 -0.28339816234819
3 -0.12589765726014
4 0.38280843042008
5 0.36561110953519
6 -0.48546695565392
7 -0.41504671557210
8 -0.31517404628996
9 0.92899444528557
10 0.000438926304321
11 -0.075055546481636
12 -0.18084017177803
13 -0.081933642670697
14 0.49008536410184
15 0.13734093760960
16 -0.052368180305280
17 -0.70975126816607
18 -0.18396576148814
19 -0.13140965262748
20 -0.072166259111378
21 0.29195409053067
22 0.15078777563867
23 0.32874443109520
24 0.18877770576017
 Sym=     16.1
 Ene=       0.7910
 Spin= Alpha
 Occup=    0.000000
1 -0.017619876279592
2 0.066680332181623
3 0.10289126112990
4 0.73590821070340
5 0.091025310547417
6 0.31738551573416
7 -0.64669216001549
8 -0.10316817452922
9 -0.40342442687353
10 0.022981318496139
11 -0.18564461250798
12 -0.085675869428139
13 0.46029100884784
14 -0.12143058882650
15 0.44333118685402
16 -0.27233962378803
17 0.18425298503295
18 -0.62337829632750
19 0.21462518717436
20 0.16730087411889
21 -0.028115644674608
22 0.055132627662034
23 -0.18225007579176
24 -0.13327182099677
 Sym=     17.1
 Ene=       0.8177
 Spin= Alpha
 Occup=    0.000000
1 0.009786820078416
2 0.29327262960297
3 -0.17507500913115
4 0.27472546451710
5 -0.30647610272962
6 0.27881109170454
7 -0.070339325411383
8 0.51331050041858
9 -0.57069904436570
10 -0.012730209591279
11 0.13493460195967
12 -0.11318524434188
13 0.43088602407250
14 0.13354529074228
15 -0.62917143477292
16 -0.71385494124252
17 -0.81531830443870
18 1.25573748980082
19 -0.37443180256886
20 -0.32482901773961
21 0.34380510100380
22 0.33735324296252
23 0.13812554361477
24 -0.11949690180142
 Sym=     18.1
 Ene=       0.8483
 Spin= Alpha
 Occup=    0.000000
1 0.015716239308029
2 -0.20325612650116
3 0.26925974102643
4 -0.52015382265919
5 -0.17232686827305
6 -0.34441681813213
7 0.71665719125518
8 0.26965090264236
9 0.49191761506637
10 0.016638179705582
11 -0.22012680420902
12 0.018375207694072
13 0.82705658281027
14 0.012255551483741
15 0.32137039928903
16 -1.08029396692913
17 -0.16971029679095
18 -0.35416494166596
19 -0.050475641157305
20 -0.000816070237544
21 0.083352890981369
22 0.11836274808879
23 0.026293772823959
24 0.026474002452258
 Sym=     19.1
 Ene=       0.8850
 Spin= Alpha
 Occup=    0.000000
1 0.046374158112999
2 0.10602877347888
3 -0.13910806419439
4 0.38970333177637
5 -0.24370058585201
6 -0.54730138150694
7 -0.62500171605077
8 -0.026894601414854
9 1.25136279911902
10 -0.047579152308516
11 0.17019711890457
12 -0.13973821243782
13 0.16629856904397
14 -0.78229419267650
15 -0.22334118262682
16 0.058913697452075
17 1.39818608461247
18 0.097309940480810
19 -0.10033883780364
20 0.034748815659211
21 -0.24330270677385
22 -0.47447740557812
23 0.34666635039574
24 0.57335466848475
 Sym=     20.1
 Ene=       1.0268
 Spin= Alpha
 Occup=    0.000000
1 -0.006808457705885
2 -1.43077763877337
3 2.49614630229893
4 0.21687891072711
5 -0.31694069991746
6 -0.10316094846221
7 -0.52322653297521
8 0.90365013565484
9 -0.48075663529557
10 -0.039952915699059
11 -0.55096090031488
12 0.50602850229006
13 0.020179816369978
14 0.17605278966289
15 -0.18522655928066
16 -0.014494211432067
17 0.19893902351828
18 1.12312231678848
19 -0.27799022906145
20 -0.70618819470418
21 -0.48729536626321
22 -0.084854260952298
23 -0.44789842935774
24 -0.59359755601974
 Sym=     21.1
 Ene=       1.1798
 Spin= Alpha
 Occup=    0.000000
1 -0.031800504726301
2 0.95513597074725
3 -1.67185454025857
4 0.093163901307858
5 0.16545848073118
6 -0.62481819501140
7 -0.087956701995962
8 -0.22546451113675
9 0.84302531935780
10 0.000572630974987
11 0.16820960752252
12 -0.099854305582771
13 0.18581053545913
14 0.31611663374210
15 -0.32311355933508
16 -0.27086145454874
17 -0.46761238901104
18 0.44730434129404
19 0.30837284341522
20 -0.68918234760492
21 -0.36816551882202
22 0.74122992646762
23 -0.91529626597437
24 1.73453974767682
 Sym=     22.1
 Ene=       1.2162
 Spin= Alpha
 Occup=    0.000000
1 0.016677823968507
2 -0.10437843664535
3 0.56812485058065
4 -0.028403964505308
5 0.021031952473385
6 0.21243967259880
7 -0.028463824514514
8 0.082004886950977
9 -0.041609583163794
10 -0.031271209129178
11 1.47293775937484
12 -2.82884179734688
13 0.28801067365195
14 0.45028895107558
15 0.14873327762758
16 -0.51688683748791
17 -0.45267002631533
18 -0.37701285173506
19 -0.11303702219579
20 0.75530986843400
21 -0.86076573541734
22 1.70554138915843
23 0.38087815745459
24 -0.45399555507351
 Sym=     23.1
 Ene=       1.2257
 Spin= Alpha
 Occup=    0.000000
1 -0.014881063384587
2 0.36135167726765
3 -0.62269436432011
4 0.023844921136590
5 0.023385187901781
6 -0.14579012667866
7 0.063306754487205
8 -0.071818248657735
9 -0.12229201013159
10 -0.036636928549917
11 0.44143997235723
12 -0.53800868569543
13 -0.18213408298219
14 -0.21002953826262
15 0.61485306319959
16 0.28092999215534
17 0.080929192208975
18 -0.58535944530411
19 -1.14741219197946
20 1.46152497273248
21 0.18602506248907
22 -0.31224346592212
23 -0.48870599463950
24 0.39841710340238
 Sym=     24.1
 Ene=       1.3353
 Spin= Alpha
 Occup=    0.000000
1 0.045099690796899
2 1.07290532279059
3 -3.65089480147367
4 -0.053210426683070
5 0.046469411359568
6 0.12234059065054
7 0.76383901702781
8 -1.40201117265482
9 -0.67842613062424
10 -0.076769202924983
11 -1.61215255356459
12 4.75120506637176
13 -0.043397256641972
14 0.25591377115754
15 0.083479579901670
16 1.19174712691181
17 -1.07527944797312
18 -0.47544888629804
19 -0.41866848396056
20 -0.45016559175377
21 -0.71614320482511
22 -0.14825508983528
23 0.45273553723325
24 0.008659656248508
