[Molden Format]
[Molpro variables]
_NUMVAR=  848.0000000000000    
_AVOGAD= 0.6022136736000000E+24
_BOLTZ= 0.1380658000000000E-22
_CLIGHT=  29979245800.00000    
_EV2006= 0.3674930886769165E-01
_EV= 0.3674932534394180E-01
_ENULL= 0.8854187817000000E-11
_KJOULE= 0.3808798324128737E-03
_KJOULE/MOL= 0.3808798324128737E-03
_CM= 0.4556335267302901E-05
_CM-1= 0.4556335267302901E-05
_DEB2SI= 0.3335641000000000E-29
_AMU2AU=  1822.888390000000    
_KCAL= 0.1593601117815568E-02
_KCAL/MOL= 0.1593601117815568E-02
_KELVIN2006= 0.3166828861084835E-05
_KELVIN= 0.3166814820820034E-05
_JOULE= 0.4359748200000000E-17
_HERTZ2006= 0.1519829850815779E-15
_HERTZ= 0.1519829846011223E-15
_HZ2006= 0.1519829850815779E-15
_HZ= 0.1519829846011223E-15
_JPCAL=  4.184000000000000    
_PLANCK= 0.6626075540000000E-33
_TOA2006= 0.5291772490000000    
_TOA= 0.5291772090000000    
_TOANG2006= 0.5291772490000000    
_TOANG= 0.5291772090000000    
_TORAD= 0.1745329251994330E-01
_TOCM=  219474.6306700000    
_TODEBYE=  2.541580000000000    
_TOEV2006=  27.21139610000000    
_TOE= 0.4803242000000000E-09
_TOEV=  27.21138390000000    
_TOHERTZ2006=  6579683899900000.    
_TOHERTZ=  6579683920700000.    
_TOHZ2006=  6579683899900000.    
_TOHZ=  6579683920700000.    
_TOK2006=  315773.3000000000    
_TOK=  315774.7000000000    
_TOKCAL=  627.5096000000000    
_TOKELVIN2006=  315773.3000000000    
_TOKELVIN=  315774.7000000000    
_TOKJ=  2625.500000000000    
_TOKJOULE=  2625.500000000000    
_TOKG= 0.1660565586000000E-26
_ANG2006=  1.889725988578923    
_ANG=  1.889726131421507    
_ANGSTROM2006=  1.889725988578923    
_ANGSTROM=  1.889726131421507    
_RPAREF=  0.000000000000000    
_RPADISS=  0.000000000000000    
_IGNORE_UNDEF=  2.000000000000000    
_STRICTCHECK=  0.000000000000000    
_SEW_ONEEL=  0.000000000000000    
_CPPDONE=FALSE
_DKROLL_DONE=  0.000000000000000    
_FOCKDONE=TRUE
_GRADONE=FALSE
_HESSDONE=FALSE
_INTDONE=TRUE
_SCFDONE=TRUE
_MODUL_BLOCK=FALSE
_MODUL_CUDA=FALSE
_MODUL_SLATER=FALSE
_MODUL_MRCC=FALSE
_MODUL_NBO6=FALSE
_MODUL_NECI=TRUE
_MODUL_AIMS=TRUE
_MRCC_EXEC=
_FITC_AO_SAVED=FALSE
_FITC_MO_SAVED=FALSE
_SHARED_FS=TRUE
_LSTYP=SEWARD
_INTYP=INTS
_GEOMTYP=ZMAT
_GRADTYP=ALASKA
_DIRECT=FALSE
_DKHO= -1.000000000000000    
_SYNCM=  0.000000000000000    
_BASIS=$BSET
_ZORIENT=  1.000000000000000    
_NELEC=  88.00000000000000    
!SPIN=  0.000000000000000    
_QSDSTEP=  0.000000000000000    
_QSDIRC=  0.000000000000000    
_PROGRAM=HF-SCF
_CPUSTEP=  3.040000000000000    
_SYSSTEP= 0.1400000000000000    
_WALLSTEP=  3.170000000000000    
!DFSCF=  0.000000000000000    
!SCSGRD=  0.000000000000000    
_BASINP=  610.0000000000000    
_CPUTOT=  8.920000000000000    
_CPUSORT=  1.000000000000000    
_SYSSORT= 0.3300000000000000    
_WALLSORT=  1.320000000298023    
_DFTEXFAC=  1.000000000000000    
_DMX= -4.894736654614675    
_DMY=-0.9405649401379446    
_DMZ= -1.869750244105560    
_DMX_SCF= -4.894736654614675    
_DMY_SCF=-0.9405649401379446    
_DMZ_SCF= -1.869750244105560    
_EHOMO=-0.3188665839602761    
_ELUMO= 0.9572010747520629E-01
_ENERGY= -551.1131451233666    
_ENUC=  674.3362295377866    
_GRADEXFAC=  9999.000000000000    
_GRADMETHOD=  1.000000000000000    
_NMRMETHOD=  0.000000000000000    
!GRID_FREEZE= -1.000000000000000    
_ITERATIONS=  10.00000000000000    
_LASTNELEC=  88.00000000000000    
_LASTSPIN=  0.000000000000000    
_LASTSYM=  1.000000000000000    
_MPP_PROG=  0.000000000000000    
_NPROC_MPP=  1.000000000000000    
_NPROC_MPPX=  1.000000000000000    
_NPROC_SMP=  1.000000000000000    
_NUMSTEP=  0.000000000000000    
_ORBITAL=  2100.200000000000    
_PI=  3.141592653589793    
_SEIG_MIN= 0.6447440948043983E-03
_SEWPROP=TRUE
_STATUS=  1.000000000000000    
_SYSTOT= 0.5200000000000000    
_VERSION=  2012001.000000000    
_WALLTOT=  9.449999999999999    
_DATE=23-Sep-15
_LASTORB=RHF
_MACHINE=Linux-3.2.0-90-generic/sce-chem-c01105(x86_64) 64 bit serial version
_OUTPUT=/home/s1267651/phd_mini_19Sept2015/protein/molpro2/phenylalanine_6-31g_scf.xml
_PGROUP=C1
_TIME=18:04:13
_LIBMOL=/usr/local/molpro/molprop_2012_1_Linux_x86_64_i8/lib/
!VIBCNT=  0.000000000000000    
!RGHFCNT=  0.000000000000000    
!SURFREC=  0.000000000000000    
!POLYREC=  0.000000000000000    
!DIPREC=  0.000000000000000    
!VSCFREC=  0.000000000000000    
!VCIREC=  0.000000000000000    
!PVCIREC=  0.000000000000000    
!VMP2REC=  0.000000000000000    
!VMCSCFREC=  0.000000000000000    
!VMRCIREC=  0.000000000000000    
!VIBINFO=  0.000000000000000    
!GAREC=  0.000000000000000    
!SCFORB=  21002.00000000000    
!NEWMOL= -1.000000000000000    
!NEWSYM= -1.000000000000000    
_SLFILES=slscratch
_NGSSTO=  9.000000000000000    
_SIN=SIN
_COS=COS
_TAN=TAN
_ACOS=ACOS
_ASIN=ASIN
_ATAN=ATAN
_COSH=COSH
_SINH=SINH
_TANH=TANH
_ABS=ABS
_MOD=MOD
_ERF=ERF
_REFC=REFC
_ERFC=ERFC
_HYPOT=HYPOT
_J0=J0
_J1=J1
_JN=JN
_GAMMA=GAMMA
_LGAMMA=LGAMMA
_Y0=Y0
_Y1=Y1
_YN=YN
_EXP=EXP
_LOG=LOG
_LOG10=LOG10
_SQRT=SQRT
_INT=INT
_NINT=NINT
_MAX=MAX
_MIN=MIN
_COSMO=  0.000000000000000    
_COSMOIT=  0.000000000000000    
_COSMOES=  0.000000000000000    
_COSMOEDS=  0.000000000000000    
_COSMOEC=  0.000000000000000    
_COSMOEDCORR=  0.000000000000000    
_FEPSI=  1.000000000000000    
_SL_IsMM=  0.000000000000000    
_SL_NSYM=  1.000000000000000    
_SL_System_BitSw=  0.000000000000000    
_SL_Unique_atoms=  0.000000000000000    
_SL_GRAD=  0.000000000000000    
_SL_MAXUPD_Hess=  5.000000000000000    
_SL_N_PRINT_COD=  5.000000000000000    
_SL_PRINT_CODES=  0.000000000000000    
_SL_BasType=  0.000000000000000    
_SL_Energy_Pred=  0.000000000000000    
_SL_New_Coords=  0.000000000000000    
_SL_Total_Nuclea=  0.000000000000000    
_SL_Highest_Mltp=  0.000000000000000    
_SL_Ref_Geom=  0.000000000000000    
_SL_Symmetry_ope=  1.000000000000000    
_SL_agrad=  0.000000000000000    
_SL_GrdMax=  0.000000000000000    
_SL_GrdNorm=  0.000000000000000    
_SL_GrdRMS=  0.000000000000000    
_SL_Hss_Q=  0.000000000000000    
_SL_Hss_X=  0.000000000000000    
_SL_BMxOld=  0.000000000000000    
_SL_KtB=  0.000000000000000    
!LATTICE= -1.000000000000000    
!NEWLATTICE=  0.000000000000000    
!LATGRAD_VAR=FALSE
!SEW_LATTICE=  1.000000000000000    
!LOCAL=  0.000000000000000    
!SAVEDOM= -1.000000000000000    
!RESTDOM= -1.000000000000000    
!SAVEDOM_HF= -1.000000000000000    
!RESTDOM_HF= -1.000000000000000    
!HESSREC=  0.000000000000000    
!FREQREC=  0.000000000000000    
!NMODREC=  0.000000000000000    
!GTASKS=  0.000000000000000    
!HTASKS=  0.000000000000000    
!THRCHG= 0.1000000000000000    
!DEBUG= -1.000000000000000    
!CFIT_CPHF=  0.000000000000000    
!RDOMAUX_CPHF=  3.000000000000000    
!THRAO_CPHF= 0.1000000000000000E-09
!THRMO_CPHF= 0.1000000000000000E-08
!THROV_CPHF= 0.1000000000000000E-11
!THRSW_CPHF= 0.1000000000000000E-09
!THRPROD_CPHF= 0.1000000000000000E-08
!THRAOPR_CPHF= 0.1000000000000000E-11
!CFIT_SCFGRD=  0.000000000000000    
!RDOMAUX_SCFGRD=  5.000000000000000    
!THRAO_SCFGRD= 0.1000000000000000E-09
!THRMO_SCFGRD= 0.1000000000000000E-08
!THROV_SCFGRD= 0.1000000000000000E-11
!THRSW_SCFGRD= 0.1000000000000000E-09
!THRPROD_SCFGRD= 0.1000000000000000E-08
!THRAOPR_SCFGRD= 0.1000000000000000E-11
!LOCFIT_SCF=  0.000000000000000    
!LOCFIT_MP2= -1.000000000000000    
_RIDOM=  0.000000000000000    
!CC2_METHOD=  0.000000000000000    
_BASIS2006=FALSE
_SVDDEL= -1.000000000000000    
_SVDDELA= -1.000000000000000    
_SVDDELP= -1.000000000000000    
_SVDDELF= -1.000000000000000    
_SVDDELS= -1.000000000000000    
_SVDDEL_ABS= -1.000000000000000    
_SVDDELA_ABS= -1.000000000000000    
_SVDDELP_ABS= -1.000000000000000    
_SVDDELF_ABS= -1.000000000000000    
_SVDDELS_ABS= -1.000000000000000    
_MAXBASIS=  0.000000000000000    
!OPT_CONICAL=  0.000000000000000    
!CLEARSP_JGRID=  0.000000000000000    
_4EXT_NDISKS=  1.000000000000000    
!ZMP=  0.000000000000000    
_MAXIT_ZMP=  500.0000000000000    
_MAXDIS_ZMP=  100.0000000000000    
_ACCU_ZMP=  14.00000000000000    
_SHIFTA_ZMP= -100.0000000000000    
!EMBEDFLAG=  1.000000000000000    
!EMBED=FALSE
!EMBED_F12=FALSE
!EMBEDNUC=  0.000000000000000    
_EMBEDENERGY=  0.000000000000000    
_KSPACETIME=  0.000000000000000    
_RSPACETIME=  0.000000000000000    
!EMBED_DFC=FALSE
!NUM_VOIDS=  0.000000000000000    
_IBODY=  0.000000000000000    
_EMBE_TOTAL=  0.000000000000000    
_EMBE_HF=  0.000000000000000    
_EMBE_CORR=  0.000000000000000    
!EDFT=  0.000000000000000    
_IFASTLATGRAD=  0.000000000000000    
_SINDEX=  0.000000000000000    
TITLE=PHENYLALANINE
BSET=6-31G
GX1=  1.723000000000001    
GY1=-0.6060000000000002    
GZ1= 0.5530000000000000    
GX2= 0.9379999999999999    
GY2= 0.4930000000000000    
GZ2=  1.268000000000000    
GX3=-0.4160000000000000    
GY3= 0.6480000000000000    
GZ3= 0.6180000000000000    
GX4= -1.504000000000000    
GY4=-0.1030000000000000    
GZ4=  1.077000000000000    
GX5= -2.760000000000000    
GY5= 0.4100000000000000E-01
GZ5= 0.4750000000000000    
GX6= -2.927000000000000    
GY6= 0.9379999999999999    
GZ6=-0.5880000000000000    
GX7= -1.839000000000000    
GY7=  1.689000000000000    
GZ7= -1.047000000000000    
GX8=-0.5840000000000000    
GY8=  1.545000000000000    
GZ8=-0.4440000000000000    
GX9= 0.9730000000000000    
GY9= -1.896000000000000    
GZ9= 0.6470000000000001    
GX10=  3.076000000000000    
GY10=-0.7620000000000000    
GZ10=  1.203000000000000    
GX11=  4.091000000000000    
GY11=-0.5870000000000000    
GZ11= 0.5480000000000000    
GX12=  3.159000000000000    
GY12= -1.076000000000000    
GZ12=  2.431000000000000    
GX13= -3.895000000000001    
GY13=  1.049000000000000    
GZ13= -1.052000000000000    
GX14= -1.968000000000000    
GY14=  2.381000000000000    
GZ14= -1.867000000000000    
GX15= 0.2550000000000000    
GY15=  2.125000000000000    
GZ15=-0.7990000000000000    
GX16= -1.375000000000000    
GY16=-0.7950000000000000    
GZ16=  1.897000000000000    
GX17= -3.599000000000000    
GY17=-0.5390000000000001    
GZ17= 0.8290000000000000    
GX18= 0.8090000000000001    
GY18= 0.2240000000000000    
GZ18=  2.314000000000000    
GX19=  1.483000000000000    
GY19=  1.431000000000000    
GZ19=  1.199000000000000    
GX20=  1.851000000000000    
GY20=-0.3370000000000000    
GZ20=-0.4940000000000002    
GX21=  1.505000000000000    
GY21= -2.640000000000000    
GZ21= 0.1630000000000000    
GX22= 0.4500000000000000E-01
GY22= -1.789000000000000    
GZ22= 0.2020000000000000    
GX23= 0.8500000000000000    
GY23= -2.152000000000000    
GZ23=  1.642000000000000    
STR=../input/PHENYLALANINE_6-31G_scf.mld
[Atoms] Angs
C     1    6         1.7230000000       -0.6060000000        0.5530000000
C     2    6         0.9380000000        0.4930000000        1.2680000000
C     3    6        -0.4160000000        0.6480000000        0.6180000000
C     4    6        -1.5040000000       -0.1030000000        1.0770000000
C     5    6        -2.7600000000        0.0410000000        0.4750000000
C     6    6        -2.9270000000        0.9380000000       -0.5880000000
C     7    6        -1.8390000000        1.6890000000       -1.0470000000
C     8    6        -0.5840000000        1.5450000000       -0.4440000000
N     9    7         0.9730000000       -1.8960000000        0.6470000000
C    10    6         3.0760000000       -0.7620000000        1.2030000000
O    11    8         4.0910000000       -0.5870000000        0.5480000000
O    12    8         3.1590000000       -1.0760000000        2.4310000000
H    13    1        -3.8950000000        1.0490000000       -1.0520000000
H    14    1        -1.9680000000        2.3810000000       -1.8670000000
H    15    1         0.2550000000        2.1250000000       -0.7990000000
H    16    1        -1.3750000000       -0.7950000000        1.8970000000
H    17    1        -3.5990000000       -0.5390000000        0.8290000000
H    18    1         0.8090000000        0.2240000000        2.3140000000
H    19    1         1.4830000000        1.4310000000        1.1990000000
H    20    1         1.8510000000       -0.3370000000       -0.4940000000
H    21    1         1.5050000000       -2.6400000000        0.1630000000
H    22    1         0.0450000000       -1.7890000000        0.2020000000
H    23    1         0.8500000000       -2.1520000000        1.6420000000
[GTO]
  1 0
 s    6  1.00
  0.3047524900D+04  0.1834737091D-02
  0.4573695200D+03  0.1403732293D-01
  0.1039486800D+03  0.6884262165D-01
  0.2921015500D+02  0.2321844388D+00
  0.9286663000D+01  0.4679413476D+00
  0.3163927000D+01  0.3623119882D+00
 s    3  1.00
  0.7868272300D+01 -0.1193324245D+00
  0.1881288500D+01 -0.1608541561D+00
  0.5442492600D+00  0.1143456443D+01
 s    1  1.00
  0.1687144800D+00  0.1000000000D+01
 p    3  1.00
  0.7868272300D+01  0.6899906693D-01
  0.1881288500D+01  0.3164239597D+00
  0.5442492600D+00  0.7443082892D+00
 p    1  1.00
  0.1687144800D+00  0.1000000000D+01
  
  2 0
 s    6  1.00
  0.3047524900D+04  0.1834737091D-02
  0.4573695200D+03  0.1403732293D-01
  0.1039486800D+03  0.6884262165D-01
  0.2921015500D+02  0.2321844388D+00
  0.9286663000D+01  0.4679413476D+00
  0.3163927000D+01  0.3623119882D+00
 s    3  1.00
  0.7868272300D+01 -0.1193324245D+00
  0.1881288500D+01 -0.1608541561D+00
  0.5442492600D+00  0.1143456443D+01
 s    1  1.00
  0.1687144800D+00  0.1000000000D+01
 p    3  1.00
  0.7868272300D+01  0.6899906693D-01
  0.1881288500D+01  0.3164239597D+00
  0.5442492600D+00  0.7443082892D+00
 p    1  1.00
  0.1687144800D+00  0.1000000000D+01
  
  3 0
 s    6  1.00
  0.3047524900D+04  0.1834737091D-02
  0.4573695200D+03  0.1403732293D-01
  0.1039486800D+03  0.6884262165D-01
  0.2921015500D+02  0.2321844388D+00
  0.9286663000D+01  0.4679413476D+00
  0.3163927000D+01  0.3623119882D+00
 s    3  1.00
  0.7868272300D+01 -0.1193324245D+00
  0.1881288500D+01 -0.1608541561D+00
  0.5442492600D+00  0.1143456443D+01
 s    1  1.00
  0.1687144800D+00  0.1000000000D+01
 p    3  1.00
  0.7868272300D+01  0.6899906693D-01
  0.1881288500D+01  0.3164239597D+00
  0.5442492600D+00  0.7443082892D+00
 p    1  1.00
  0.1687144800D+00  0.1000000000D+01
  
  4 0
 s    6  1.00
  0.3047524900D+04  0.1834737091D-02
  0.4573695200D+03  0.1403732293D-01
  0.1039486800D+03  0.6884262165D-01
  0.2921015500D+02  0.2321844388D+00
  0.9286663000D+01  0.4679413476D+00
  0.3163927000D+01  0.3623119882D+00
 s    3  1.00
  0.7868272300D+01 -0.1193324245D+00
  0.1881288500D+01 -0.1608541561D+00
  0.5442492600D+00  0.1143456443D+01
 s    1  1.00
  0.1687144800D+00  0.1000000000D+01
 p    3  1.00
  0.7868272300D+01  0.6899906693D-01
  0.1881288500D+01  0.3164239597D+00
  0.5442492600D+00  0.7443082892D+00
 p    1  1.00
  0.1687144800D+00  0.1000000000D+01
  
  5 0
 s    6  1.00
  0.3047524900D+04  0.1834737091D-02
  0.4573695200D+03  0.1403732293D-01
  0.1039486800D+03  0.6884262165D-01
  0.2921015500D+02  0.2321844388D+00
  0.9286663000D+01  0.4679413476D+00
  0.3163927000D+01  0.3623119882D+00
 s    3  1.00
  0.7868272300D+01 -0.1193324245D+00
  0.1881288500D+01 -0.1608541561D+00
  0.5442492600D+00  0.1143456443D+01
 s    1  1.00
  0.1687144800D+00  0.1000000000D+01
 p    3  1.00
  0.7868272300D+01  0.6899906693D-01
  0.1881288500D+01  0.3164239597D+00
  0.5442492600D+00  0.7443082892D+00
 p    1  1.00
  0.1687144800D+00  0.1000000000D+01
  
  6 0
 s    6  1.00
  0.3047524900D+04  0.1834737091D-02
  0.4573695200D+03  0.1403732293D-01
  0.1039486800D+03  0.6884262165D-01
  0.2921015500D+02  0.2321844388D+00
  0.9286663000D+01  0.4679413476D+00
  0.3163927000D+01  0.3623119882D+00
 s    3  1.00
  0.7868272300D+01 -0.1193324245D+00
  0.1881288500D+01 -0.1608541561D+00
  0.5442492600D+00  0.1143456443D+01
 s    1  1.00
  0.1687144800D+00  0.1000000000D+01
 p    3  1.00
  0.7868272300D+01  0.6899906693D-01
  0.1881288500D+01  0.3164239597D+00
  0.5442492600D+00  0.7443082892D+00
 p    1  1.00
  0.1687144800D+00  0.1000000000D+01
  
  7 0
 s    6  1.00
  0.3047524900D+04  0.1834737091D-02
  0.4573695200D+03  0.1403732293D-01
  0.1039486800D+03  0.6884262165D-01
  0.2921015500D+02  0.2321844388D+00
  0.9286663000D+01  0.4679413476D+00
  0.3163927000D+01  0.3623119882D+00
 s    3  1.00
  0.7868272300D+01 -0.1193324245D+00
  0.1881288500D+01 -0.1608541561D+00
  0.5442492600D+00  0.1143456443D+01
 s    1  1.00
  0.1687144800D+00  0.1000000000D+01
 p    3  1.00
  0.7868272300D+01  0.6899906693D-01
  0.1881288500D+01  0.3164239597D+00
  0.5442492600D+00  0.7443082892D+00
 p    1  1.00
  0.1687144800D+00  0.1000000000D+01
  
  8 0
 s    6  1.00
  0.3047524900D+04  0.1834737091D-02
  0.4573695200D+03  0.1403732293D-01
  0.1039486800D+03  0.6884262165D-01
  0.2921015500D+02  0.2321844388D+00
  0.9286663000D+01  0.4679413476D+00
  0.3163927000D+01  0.3623119882D+00
 s    3  1.00
  0.7868272300D+01 -0.1193324245D+00
  0.1881288500D+01 -0.1608541561D+00
  0.5442492600D+00  0.1143456443D+01
 s    1  1.00
  0.1687144800D+00  0.1000000000D+01
 p    3  1.00
  0.7868272300D+01  0.6899906693D-01
  0.1881288500D+01  0.3164239597D+00
  0.5442492600D+00  0.7443082892D+00
 p    1  1.00
  0.1687144800D+00  0.1000000000D+01
  
  9 0
 s    6  1.00
  0.4173511500D+04  0.1834772199D-02
  0.6274579100D+03  0.1399462699D-01
  0.1429020900D+03  0.6858655195D-01
  0.4023432900D+02  0.2322408698D+00
  0.1282021300D+02  0.4690699496D+00
  0.4390437000D+01  0.3604551997D+00
 s    3  1.00
  0.1162636200D+02 -0.1149611854D+00
  0.2716279800D+01 -0.1691174879D+00
  0.7722184000D+00  0.1145851954D+01
 s    1  1.00
  0.2120315000D+00  0.1000000000D+01
 p    3  1.00
  0.1162636200D+02  0.6757974372D-01
  0.2716279800D+01  0.3239072986D+00
  0.7722184000D+00  0.7408951369D+00
 p    1  1.00
  0.2120315000D+00  0.1000000000D+01
  
 10 0
 s    6  1.00
  0.3047524900D+04  0.1834737091D-02
  0.4573695200D+03  0.1403732293D-01
  0.1039486800D+03  0.6884262165D-01
  0.2921015500D+02  0.2321844388D+00
  0.9286663000D+01  0.4679413476D+00
  0.3163927000D+01  0.3623119882D+00
 s    3  1.00
  0.7868272300D+01 -0.1193324245D+00
  0.1881288500D+01 -0.1608541561D+00
  0.5442492600D+00  0.1143456443D+01
 s    1  1.00
  0.1687144800D+00  0.1000000000D+01
 p    3  1.00
  0.7868272300D+01  0.6899906693D-01
  0.1881288500D+01  0.3164239597D+00
  0.5442492600D+00  0.7443082892D+00
 p    1  1.00
  0.1687144800D+00  0.1000000000D+01
  
 11 0
 s    6  1.00
  0.5484671700D+04  0.1831074396D-02
  0.8252349500D+03  0.1395017197D-01
  0.1880469600D+03  0.6844507786D-01
  0.5296450000D+02  0.2327143395D+00
  0.1689757000D+02  0.4701928990D+00
  0.5799635300D+01  0.3585208493D+00
 s    3  1.00
  0.1553961600D+02 -0.1107775519D+00
  0.3599933600D+01 -0.1480262626D+00
  0.1013761800D+01  0.1130767020D+01
 s    1  1.00
  0.2700058200D+00  0.1000000000D+01
 p    3  1.00
  0.1553961600D+02  0.7087426737D-01
  0.3599933600D+01  0.3397528370D+00
  0.1013761800D+01  0.7271585736D+00
 p    1  1.00
  0.2700058200D+00  0.1000000000D+01
  
 12 0
 s    6  1.00
  0.5484671700D+04  0.1831074396D-02
  0.8252349500D+03  0.1395017197D-01
  0.1880469600D+03  0.6844507786D-01
  0.5296450000D+02  0.2327143395D+00
  0.1689757000D+02  0.4701928990D+00
  0.5799635300D+01  0.3585208493D+00
 s    3  1.00
  0.1553961600D+02 -0.1107775519D+00
  0.3599933600D+01 -0.1480262626D+00
  0.1013761800D+01  0.1130767020D+01
 s    1  1.00
  0.2700058200D+00  0.1000000000D+01
 p    3  1.00
  0.1553961600D+02  0.7087426737D-01
  0.3599933600D+01  0.3397528370D+00
  0.1013761800D+01  0.7271585736D+00
 p    1  1.00
  0.2700058200D+00  0.1000000000D+01
  
 13 0
 s    3  1.00
  0.1873113700D+02  0.3349460400D-01
  0.2825394400D+01  0.2347269500D+00
  0.6401216900D+00  0.8137573301D+00
 s    1  1.00
  0.1612777600D+00  0.1000000000D+01
  
 14 0
 s    3  1.00
  0.1873113700D+02  0.3349460400D-01
  0.2825394400D+01  0.2347269500D+00
  0.6401216900D+00  0.8137573301D+00
 s    1  1.00
  0.1612777600D+00  0.1000000000D+01
  
 15 0
 s    3  1.00
  0.1873113700D+02  0.3349460400D-01
  0.2825394400D+01  0.2347269500D+00
  0.6401216900D+00  0.8137573301D+00
 s    1  1.00
  0.1612777600D+00  0.1000000000D+01
  
 16 0
 s    3  1.00
  0.1873113700D+02  0.3349460400D-01
  0.2825394400D+01  0.2347269500D+00
  0.6401216900D+00  0.8137573301D+00
 s    1  1.00
  0.1612777600D+00  0.1000000000D+01
  
 17 0
 s    3  1.00
  0.1873113700D+02  0.3349460400D-01
  0.2825394400D+01  0.2347269500D+00
  0.6401216900D+00  0.8137573301D+00
 s    1  1.00
  0.1612777600D+00  0.1000000000D+01
  
 18 0
 s    3  1.00
  0.1873113700D+02  0.3349460400D-01
  0.2825394400D+01  0.2347269500D+00
  0.6401216900D+00  0.8137573301D+00
 s    1  1.00
  0.1612777600D+00  0.1000000000D+01
  
 19 0
 s    3  1.00
  0.1873113700D+02  0.3349460400D-01
  0.2825394400D+01  0.2347269500D+00
  0.6401216900D+00  0.8137573301D+00
 s    1  1.00
  0.1612777600D+00  0.1000000000D+01
  
 20 0
 s    3  1.00
  0.1873113700D+02  0.3349460400D-01
  0.2825394400D+01  0.2347269500D+00
  0.6401216900D+00  0.8137573301D+00
 s    1  1.00
  0.1612777600D+00  0.1000000000D+01
  
 21 0
 s    3  1.00
  0.1873113700D+02  0.3349460400D-01
  0.2825394400D+01  0.2347269500D+00
  0.6401216900D+00  0.8137573301D+00
 s    1  1.00
  0.1612777600D+00  0.1000000000D+01
  
 22 0
 s    3  1.00
  0.1873113700D+02  0.3349460400D-01
  0.2825394400D+01  0.2347269500D+00
  0.6401216900D+00  0.8137573301D+00
 s    1  1.00
  0.1612777600D+00  0.1000000000D+01
  
 23 0
 s    3  1.00
  0.1873113700D+02  0.3349460400D-01
  0.2825394400D+01  0.2347269500D+00
  0.6401216900D+00  0.8137573301D+00
 s    1  1.00
  0.1612777600D+00  0.1000000000D+01
 
 
[MO]
 Sym=      1.1
 Ene=     -20.4511
 Spin= Alpha
 Occup=    2.000000
1 -0.000056731462507
2 -0.000678902978658
3 0.003096099926702
4 -0.000019653569786
5 0.000035495914553
6 -0.000165177659014
7 -0.001367850784780
8 -0.000762420556344
9 0.003248373220660
10 0.000017065217622
11 0.000098600730035
12 -0.001986322800493
13 -0.000096246097153
14 0.000070264424581
15 0.000006660957628
16 0.000681788220534
17 0.001111908850734
18 0.000335874242258
19 -0.000000095493155
20 0.000037098253893
21 0.000243892264206
22 -0.000013357027538
23 -0.000026143867146
24 0.000039748279716
25 0.000819642521973
26 0.000034395303627
27 0.000089229913374
28 -0.000006829186939
29 -0.000071371287400
30 0.000381160131005
31 -0.000029238232280
32 0.000011661408142
33 -0.000016432715941
34 0.000399580347117
35 0.000135812137521
36 0.000006158665152
37 -0.000003152945426
38 -0.000024857535748
39 0.000206395804700
40 -0.000007493679751
41 -0.000001815262025
42 -0.000006293074015
43 0.000154000280214
44 -0.000019763172310
45 0.000087436137935
46 -0.000000573248050
47 -0.000006691838429
48 0.000001973769602
49 -0.000004430449625
50 -0.000000003316375
51 -0.000003427929000
52 -0.000055989375083
53 -0.000020576416891
54 0.000003397229160
55 -0.000003736834426
56 -0.000042245282197
57 0.000088515039721
58 -0.000012522106865
59 0.000005153619812
60 -0.000014459431297
61 0.000046847394591
62 -0.000041608339689
63 0.000065105283453
64 0.000000825596480
65 0.000010578024630
66 -0.000128892110325
67 -0.000013747334321
68 0.000005803460044
69 -0.000013790141855
70 -0.000173481036412
71 -0.000108909770288
72 0.000098067525633
73 0.000008554122760
74 0.000045248041365
75 -0.001132387908288
76 -0.000066403378390
77 0.000001136941019
78 0.000002373972815
79 0.000282193522903
80 -0.000855221679478
81 -0.000373910566606
82 0.000162206184419
83 0.000268269267471
84 0.005409186481192
85 -0.000043855389682
86 0.000008965808283
87 -0.000009665680290
88 0.007016533695743
89 0.001305077259197
90 -0.005086078064571
91 0.99586204623232
92 0.023418798025246
93 -0.015355806050345
94 -0.002027869190207
95 -0.000308717160324
96 0.001098729570927
97 0.004141002829426
98 0.000697976907928
99 -0.002537380547424
100 -0.003509283970363
101 -0.000570134948748
102 0.002043461847345
103 0.000066284250805
104 -0.000030009647105
105 0.000121333323631
106 -0.001263684686419
107 0.000126610242817
108 -0.000496984539683
109 -0.000007587645948
110 -0.000006004831601
111 0.000002077098691
112 0.000037586803963
113 0.000007268592559
114 0.000183018101787
115 -0.000015579269438
116 -0.000032841126211
117 -0.000004261423109
118 0.000039529352551
119 0.000053295006001
120 0.000336508600851
121 0.000046511744255
122 -0.000673016510688
123 0.000134220612580
124 0.001130588533162
125 -0.000023000261611
126 -0.000517416503225
127 0.000115485263470
128 0.000097417314957
129 0.000019815156323
130 0.000299733189800
 Sym=      2.1
 Ene=     -20.4404
 Spin= Alpha
 Occup=    2.000000
1 -0.000062694429710
2 -0.000689303371116
3 0.003633897184209
4 -0.000315158923704
5 0.000009780639785
6 -0.000106543877084
7 0.003277410955868
8 0.000533766771269
9 -0.001055860749042
10 0.000034526030947
11 0.000272365016020
12 -0.000597726493927
13 0.000101221986511
14 0.000020839090604
15 -0.000026692740433
16 -0.001332824656418
17 -0.000639503465043
18 0.000104958223137
19 -0.000017626988285
20 -0.000196008861260
21 0.000416688074450
22 -0.000053748216535
23 0.000029807437989
24 0.000021240419181
25 0.000116482873490
26 0.000029868121726
27 -0.000551722823249
28 -0.000001062766443
29 -0.000008855404339
30 0.000420487748320
31 0.000049758517428
32 0.000000306235257
33 0.000016184179883
34 -0.000455340640055
35 0.000075626147424
36 -0.000083676230973
37 0.000004904562048
38 0.000039294962415
39 -0.000462325857724
40 -0.000002081639926
41 0.000002846090908
42 -0.000003987181397
43 -0.000263657542987
44 -0.000001812300082
45 -0.000142167607802
46 0.000000148476876
47 0.000000017279992
48 -0.000053297048357
49 -0.000004451599694
50 -0.000011701168700
51 0.000002068721198
52 0.000057972856351
53 0.000043845484649
54 0.000021581137647
55 0.000000141378262
56 0.000001750451008
57 -0.000040719450397
58 0.000010858125153
59 0.000002422527496
60 -0.000000388815425
61 -0.000043158310728
62 -0.000086090321789
63 0.000029893489337
64 0.000003850921125
65 0.000017601237180
66 -0.000414169575667
67 -0.000011188957962
68 0.000002552571924
69 -0.000006913749887
70 -0.000024976057796
71 0.000303952338640
72 -0.000175639594298
73 0.000015637066573
74 0.000184916396215
75 -0.000026258919157
76 0.000097124756462
77 -0.000019602543194
78 0.000010814256145
79 -0.000917423468026
80 0.000490064413535
81 -0.000045100765173
82 0.000116999713331
83 -0.000010196730205
84 0.003941412345210
85 0.000095469023087
86 -0.000027849962646
87 0.000076550881704
88 0.000710155680245
89 -0.002198485323273
90 0.008674855678869
91 0.003475181493264
92 -0.000414466763810
93 0.002035484882578
94 0.000122420061150
95 0.000000586033561
96 0.000011646416065
97 -0.001224073189757
98 0.000208287260137
99 -0.000896524735748
100 0.99588477893405
101 0.023236657035684
102 -0.014834505807152
103 -0.000390894828075
104 0.000503446496359
105 -0.002143005750776
106 0.000436926718979
107 -0.001193338632537
108 0.004763145198987
109 0.000010171659453
110 0.000017272460950
111 0.000011164883211
112 0.000024574294970
113 0.000008952464955
114 -0.000085044760891
115 0.000052977925876
116 -0.000097652130586
117 0.000005588471024
118 -0.000031504828093
119 -0.000060671538435
120 0.000007802577000
121 0.000223049503770
122 0.000627978896878
123 -0.000421211845243
124 -0.000505746573068
125 0.000234380133213
126 0.000212507681046
127 -0.000121282593594
128 -0.000222776152274
129 -0.000000173833932
130 0.000095276866342
 Sym=      3.1
 Ene=     -15.7458
 Spin= Alpha
 Occup=    2.000000
1 -0.000004924665556
2 -0.000522150342866
3 0.003773069700864
4 -0.000091728514602
5 -0.000193283470954
6 -0.000045027498177
7 -0.001465469419263
8 -0.002226564873545
9 -0.000016035532399
10 -0.000033930414386
11 -0.000405838724330
12 0.001343648163772
13 -0.000012886196956
14 0.000183443045122
15 0.000068357468942
16 -0.000503207436621
17 0.000161024715985
18 -0.000660145451833
19 0.000021044665825
20 0.000152064477414
21 -0.000513887752564
22 0.000044143371645
23 0.000116728970589
24 -0.000075354014739
25 -0.001912921776326
26 -0.000739785689372
27 0.000380766289247
28 0.000033295157002
29 0.000278135786564
30 -0.002307099409405
31 -0.000076810776608
32 0.000020897686149
33 -0.000080410729378
34 0.000039178012169
35 -0.000754823610705
36 0.001066732730973
37 -0.000010707202437
38 -0.000067197659607
39 0.001211816152210
40 0.000029738396566
41 -0.000034754259557
42 0.000000744657976
43 0.000685655289590
44 0.000348224589471
45 -0.000108385384272
46 0.000003154099542
47 0.000018602539049
48 -0.000471009668452
49 0.000004104981355
50 0.000019597443482
51 -0.000015033622896
52 -0.000290573884719
53 0.000060161849902
54 -0.000193688703490
55 -0.000002777095499
56 -0.000009560698097
57 0.000637452134392
58 -0.000001874757632
59 -0.000003600636416
60 0.000010740454447
61 0.000219948894902
62 -0.000079761393480
63 0.000129186773337
64 -0.000002576942373
65 0.000008148616497
66 0.000315313325836
67 0.000032089242688
68 -0.000035458280590
69 -0.000003197356173
70 0.000706699157782
71 -0.000066865133785
72 0.000378688431222
73 0.99605256142699
74 0.024465162255684
75 -0.014721874561812
76 -0.000068022637330
77 -0.000088615359998
78 -0.000048891414624
79 -0.000618908509413
80 -0.001236230128497
81 0.000133427899126
82 -0.000028139150086
83 -0.000385632765763
84 0.000725691683112
85 0.000198865220189
86 0.000020608166404
87 0.000067264657012
88 -0.000642906902778
89 0.000146245025749
90 0.000194964320245
91 -0.000003189517211
92 -0.000028315315406
93 0.000249783129508
94 -0.000019145942831
95 -0.000032720009901
96 -0.000009658868165
97 0.000015251741460
98 0.000074930984685
99 0.000050550444872
100 0.000007697832030
101 0.000137302572573
102 -0.000522461170078
103 -0.000031827197027
104 0.000016187435054
105 0.000004588412351
106 0.000294615512067
107 -0.000063217933193
108 0.000144414734013
109 -0.000017830417458
110 -0.000076438455554
111 -0.000012549515910
112 0.000024980350658
113 -0.000053781480045
114 -0.000187144302615
115 -0.000005565942342
116 -0.000526489688562
117 0.000018536786589
118 0.000210922997225
119 -0.000000453644768
120 -0.000137627922415
121 -0.000086781432619
122 0.000206945600192
123 -0.000211723784311
124 -0.000168541629657