[Molden Format]
[Molpro variables]
_NUMVAR=  830.0000000000000    
_AVOGAD= 0.6022136736000000E+24
_BOLTZ= 0.1380658000000000E-22
_CLIGHT=  29979245800.00000    
_EV2006= 0.3674930886769165E-01
_EV= 0.3674932534394180E-01
_ENULL= 0.8854187817000000E-11
_KJOULE= 0.3808798324128737E-03
_KJOULE/MOL= 0.3808798324128737E-03
_CM= 0.4556335267302901E-05
_CM-1= 0.4556335267302901E-05
_DEB2SI= 0.3335641000000000E-29
_AMU2AU=  1822.888390000000    
_KCAL= 0.1593601117815568E-02
_KCAL/MOL= 0.1593601117815568E-02
_KELVIN2006= 0.3166828861084835E-05
_KELVIN= 0.3166814820820034E-05
_JOULE= 0.4359748200000000E-17
_HERTZ2006= 0.1519829850815779E-15
_HERTZ= 0.1519829846011223E-15
_HZ2006= 0.1519829850815779E-15
_HZ= 0.1519829846011223E-15
_JPCAL=  4.184000000000000    
_PLANCK= 0.6626075540000000E-33
_TOA2006= 0.5291772490000000    
_TOA= 0.5291772090000000    
_TOANG2006= 0.5291772490000000    
_TOANG= 0.5291772090000000    
_TORAD= 0.1745329251994330E-01
_TOCM=  219474.6306700000    
_TODEBYE=  2.541580000000000    
_TOEV2006=  27.21139610000000    
_TOE= 0.4803242000000000E-09
_TOEV=  27.21138390000000    
_TOHERTZ2006=  6579683899900000.    
_TOHERTZ=  6579683920700000.    
_TOHZ2006=  6579683899900000.    
_TOHZ=  6579683920700000.    
_TOK2006=  315773.3000000000    
_TOK=  315774.7000000000    
_TOKCAL=  627.5096000000000    
_TOKELVIN2006=  315773.3000000000    
_TOKELVIN=  315774.7000000000    
_TOKJ=  2625.500000000000    
_TOKJOULE=  2625.500000000000    
_TOKG= 0.1660565586000000E-26
_ANG2006=  1.889725988578923    
_ANG=  1.889726131421507    
_ANGSTROM2006=  1.889725988578923    
_ANGSTROM=  1.889726131421507    
_RPAREF=  0.000000000000000    
_RPADISS=  0.000000000000000    
_IGNORE_UNDEF=  2.000000000000000    
_STRICTCHECK=  0.000000000000000    
_SEW_ONEEL=  0.000000000000000    
_CPPDONE=FALSE
_DKROLL_DONE=  0.000000000000000    
_FOCKDONE=TRUE
_GRADONE=FALSE
_HESSDONE=FALSE
_INTDONE=TRUE
_SCFDONE=TRUE
_MODUL_BLOCK=FALSE
_MODUL_CUDA=FALSE
_MODUL_SLATER=FALSE
_MODUL_MRCC=FALSE
_MODUL_NBO6=FALSE
_MODUL_NECI=TRUE
_MODUL_AIMS=TRUE
_MRCC_EXEC=
_FITC_AO_SAVED=FALSE
_FITC_MO_SAVED=FALSE
_SHARED_FS=TRUE
_LSTYP=SEWARD
_INTYP=INTS
_GEOMTYP=ZMAT
_GRADTYP=ALASKA
_DIRECT=FALSE
_DKHO= -1.000000000000000    
_SYNCM=  0.000000000000000    
_BASIS=$BSET
_ZORIENT=  1.000000000000000    
_NELEC=  62.00000000000000    
!SPIN=  0.000000000000000    
_QSDSTEP=  0.000000000000000    
_QSDIRC=  0.000000000000000    
_PROGRAM=HF-SCF
_CPUSTEP= 0.8399999999999999    
_SYSSTEP= 0.4999999999999999E-01
_WALLSTEP= 0.9000000000000000    
!DFSCF=  0.000000000000000    
!SCSGRD=  0.000000000000000    
_BASINP=  610.0000000000000    
_CPUTOT=  2.760000000000000    
_CPUSORT= 0.2800000000000000    
_SYSSORT= 0.1300000000000000    
_WALLSORT= 0.4100000001490116    
_DFTEXFAC=  1.000000000000000    
_DMX= -4.651953680982924    
_DMY=  2.210095719047253    
_DMZ=  1.815269900343495    
_DMX_SCF= -4.651953680982924    
_DMY_SCF=  2.210095719047253    
_DMZ_SCF=  1.815269900343495    
_EHOMO=-0.3158095154326068    
_ELUMO= 0.1247343964121404    
_ENERGY= -398.5148023607068    
_ENUC=  393.2815788720757    
_GRADEXFAC=  9999.000000000000    
_GRADMETHOD=  1.000000000000000    
_NMRMETHOD=  0.000000000000000    
!GRID_FREEZE= -1.000000000000000    
_ITERATIONS=  11.00000000000000    
_LASTNELEC=  62.00000000000000    
_LASTSPIN=  0.000000000000000    
_LASTSYM=  1.000000000000000    
_MPP_PROG=  0.000000000000000    
_NPROC_MPP=  1.000000000000000    
_NPROC_MPPX=  1.000000000000000    
_NPROC_SMP=  1.000000000000000    
_NUMSTEP=  0.000000000000000    
_ORBITAL=  2100.200000000000    
_PI=  3.141592653589793    
_SEIG_MIN= 0.3490978871249353E-02
_SEWPROP=TRUE
_STATUS=  1.000000000000000    
_SYSTOT= 0.2100000000000000    
_VERSION=  2012001.000000000    
_WALLTOT=  2.970000000000000    
_DATE=23-Sep-15
_LASTORB=RHF
_MACHINE=Linux-3.2.0-90-generic/sce-chem-c01105(x86_64) 64 bit serial version
_OUTPUT=/home/s1267651/phd_mini_19Sept2015/protein/molpro2/proline_6-31g_scf.xml
_PGROUP=C1
_TIME=18:05:02
_LIBMOL=/usr/local/molpro/molprop_2012_1_Linux_x86_64_i8/lib/
!VIBCNT=  0.000000000000000    
!RGHFCNT=  0.000000000000000    
!SURFREC=  0.000000000000000    
!POLYREC=  0.000000000000000    
!DIPREC=  0.000000000000000    
!VSCFREC=  0.000000000000000    
!VCIREC=  0.000000000000000    
!PVCIREC=  0.000000000000000    
!VMP2REC=  0.000000000000000    
!VMCSCFREC=  0.000000000000000    
!VMRCIREC=  0.000000000000000    
!VIBINFO=  0.000000000000000    
!GAREC=  0.000000000000000    
!SCFORB=  21002.00000000000    
!NEWMOL= -1.000000000000000    
!NEWSYM= -1.000000000000000    
_SLFILES=slscratch
_NGSSTO=  9.000000000000000    
_SIN=SIN
_COS=COS
_TAN=TAN
_ACOS=ACOS
_ASIN=ASIN
_ATAN=ATAN
_COSH=COSH
_SINH=SINH
_TANH=TANH
_ABS=ABS
_MOD=MOD
_ERF=ERF
_REFC=REFC
_ERFC=ERFC
_HYPOT=HYPOT
_J0=J0
_J1=J1
_JN=JN
_GAMMA=GAMMA
_LGAMMA=LGAMMA
_Y0=Y0
_Y1=Y1
_YN=YN
_EXP=EXP
_LOG=LOG
_LOG10=LOG10
_SQRT=SQRT
_INT=INT
_NINT=NINT
_MAX=MAX
_MIN=MIN
_COSMO=  0.000000000000000    
_COSMOIT=  0.000000000000000    
_COSMOES=  0.000000000000000    
_COSMOEDS=  0.000000000000000    
_COSMOEC=  0.000000000000000    
_COSMOEDCORR=  0.000000000000000    
_FEPSI=  1.000000000000000    
_SL_IsMM=  0.000000000000000    
_SL_NSYM=  1.000000000000000    
_SL_System_BitSw=  0.000000000000000    
_SL_Unique_atoms=  0.000000000000000    
_SL_GRAD=  0.000000000000000    
_SL_MAXUPD_Hess=  5.000000000000000    
_SL_N_PRINT_COD=  5.000000000000000    
_SL_PRINT_CODES=  0.000000000000000    
_SL_BasType=  0.000000000000000    
_SL_Energy_Pred=  0.000000000000000    
_SL_New_Coords=  0.000000000000000    
_SL_Total_Nuclea=  0.000000000000000    
_SL_Highest_Mltp=  0.000000000000000    
_SL_Ref_Geom=  0.000000000000000    
_SL_Symmetry_ope=  1.000000000000000    
_SL_agrad=  0.000000000000000    
_SL_GrdMax=  0.000000000000000    
_SL_GrdNorm=  0.000000000000000    
_SL_GrdRMS=  0.000000000000000    
_SL_Hss_Q=  0.000000000000000    
_SL_Hss_X=  0.000000000000000    
_SL_BMxOld=  0.000000000000000    
_SL_KtB=  0.000000000000000    
!LATTICE= -1.000000000000000    
!NEWLATTICE=  0.000000000000000    
!LATGRAD_VAR=FALSE
!SEW_LATTICE=  1.000000000000000    
!LOCAL=  0.000000000000000    
!SAVEDOM= -1.000000000000000    
!RESTDOM= -1.000000000000000    
!SAVEDOM_HF= -1.000000000000000    
!RESTDOM_HF= -1.000000000000000    
!HESSREC=  0.000000000000000    
!FREQREC=  0.000000000000000    
!NMODREC=  0.000000000000000    
!GTASKS=  0.000000000000000    
!HTASKS=  0.000000000000000    
!THRCHG= 0.1000000000000000    
!DEBUG= -1.000000000000000    
!CFIT_CPHF=  0.000000000000000    
!RDOMAUX_CPHF=  3.000000000000000    
!THRAO_CPHF= 0.1000000000000000E-09
!THRMO_CPHF= 0.1000000000000000E-08
!THROV_CPHF= 0.1000000000000000E-11
!THRSW_CPHF= 0.1000000000000000E-09
!THRPROD_CPHF= 0.1000000000000000E-08
!THRAOPR_CPHF= 0.1000000000000000E-11
!CFIT_SCFGRD=  0.000000000000000    
!RDOMAUX_SCFGRD=  5.000000000000000    
!THRAO_SCFGRD= 0.1000000000000000E-09
!THRMO_SCFGRD= 0.1000000000000000E-08
!THROV_SCFGRD= 0.1000000000000000E-11
!THRSW_SCFGRD= 0.1000000000000000E-09
!THRPROD_SCFGRD= 0.1000000000000000E-08
!THRAOPR_SCFGRD= 0.1000000000000000E-11
!LOCFIT_SCF=  0.000000000000000    
!LOCFIT_MP2= -1.000000000000000    
_RIDOM=  0.000000000000000    
!CC2_METHOD=  0.000000000000000    
_BASIS2006=FALSE
_SVDDEL= -1.000000000000000    
_SVDDELA= -1.000000000000000    
_SVDDELP= -1.000000000000000    
_SVDDELF= -1.000000000000000    
_SVDDELS= -1.000000000000000    
_SVDDEL_ABS= -1.000000000000000    
_SVDDELA_ABS= -1.000000000000000    
_SVDDELP_ABS= -1.000000000000000    
_SVDDELF_ABS= -1.000000000000000    
_SVDDELS_ABS= -1.000000000000000    
_MAXBASIS=  0.000000000000000    
!OPT_CONICAL=  0.000000000000000    
!CLEARSP_JGRID=  0.000000000000000    
_4EXT_NDISKS=  1.000000000000000    
!ZMP=  0.000000000000000    
_MAXIT_ZMP=  500.0000000000000    
_MAXDIS_ZMP=  100.0000000000000    
_ACCU_ZMP=  14.00000000000000    
_SHIFTA_ZMP= -100.0000000000000    
!EMBEDFLAG=  1.000000000000000    
!EMBED=FALSE
!EMBED_F12=FALSE
!EMBEDNUC=  0.000000000000000    
_EMBEDENERGY=  0.000000000000000    
_KSPACETIME=  0.000000000000000    
_RSPACETIME=  0.000000000000000    
!EMBED_DFC=FALSE
!NUM_VOIDS=  0.000000000000000    
_IBODY=  0.000000000000000    
_EMBE_TOTAL=  0.000000000000000    
_EMBE_HF=  0.000000000000000    
_EMBE_CORR=  0.000000000000000    
!EDFT=  0.000000000000000    
_IFASTLATGRAD=  0.000000000000000    
_SINDEX=  0.000000000000000    
TITLE=PROLINE
BSET=6-31G
GX1=-0.5350000000000000    
GY1= 0.7680000000000000    
GZ1= -1.027000000000000    
GX2= -1.858000000000000    
GY2= 0.6580000000000004    
GZ2=-0.3400000000000000    
GX3= -1.759000000000000    
GY3=-0.6410000000000000    
GZ3= 0.4810000000000001    
GX4=-0.4080000000000000    
GY4= -1.305000000000000    
GZ4= 0.1540000000000000    
GX5= 0.4420000000000000    
GY5=-0.1100000000000000    
GZ5=-0.3150000000000000    
GX6=  1.571000000000000    
GY6=-0.5440000000000002    
GZ6= -1.219000000000000    
GX7=  2.726000000000000    
GY7=-0.2870000000000000    
GZ7=-0.9200000000000000    
GX8=  1.318000000000000    
GY8= -1.176000000000000    
GZ8= -2.291000000000000    
GX9= -1.797000000000000    
GY9=-0.4020000000000000    
GZ9=  1.542000000000000    
GX10= -2.569000000000000    
GY10= -1.310000000000000    
GZ10= 0.2000000000000000    
GX11= -2.039000000000000    
GY11=  1.516000000000000    
GZ11= 0.3030000000000001    
GX12= -2.672000000000001    
GY12= 0.6050000000000000    
GZ12= -1.061000000000000    
GX13=-0.6290000000000000    
GY13= 0.4540000000000000    
GZ13= -2.009000000000000    
GX14=-0.2080000000000000    
GY14=  1.750000000000000    
GZ14=-0.9900000000000000    
GX15=-0.5110000000000000    
GY15= -2.054000000000000    
GZ15=-0.6290000000000000    
GX16= 0.2400000000000000E-01
GY16= -1.785000000000001    
GZ16=  1.029000000000000    
GX17= 0.9140000000000000    
GY17= 0.4040000000000000    
GZ17= 0.5210000000000000    
STR=../input/PROLINE_6-31G_scf.mld
[Atoms] Angs
N     1    7        -0.5350000000        0.7680000000       -1.0270000000
C     2    6        -1.8580000000        0.6580000000       -0.3400000000
C     3    6        -1.7590000000       -0.6410000000        0.4810000000
C     4    6        -0.4080000000       -1.3050000000        0.1540000000
C     5    6         0.4420000000       -0.1100000000       -0.3150000000
C     6    6         1.5710000000       -0.5440000000       -1.2190000000
O     7    8         2.7260000000       -0.2870000000       -0.9200000000
O     8    8         1.3180000000       -1.1760000000       -2.2910000000
H     9    1        -1.7970000000       -0.4020000000        1.5420000000
H    10    1        -2.5690000000       -1.3100000000        0.2000000000
H    11    1        -2.0390000000        1.5160000000        0.3030000000
H    12    1        -2.6720000000        0.6050000000       -1.0610000000
H    13    1        -0.6290000000        0.4540000000       -2.0090000000
H    14    1        -0.2080000000        1.7500000000       -0.9900000000
H    15    1        -0.5110000000       -2.0540000000       -0.6290000000
H    16    1         0.0240000000       -1.7850000000        1.0290000000
H    17    1         0.9140000000        0.4040000000        0.5210000000
[GTO]
  1 0
 s    6  1.00
  0.4173511500D+04  0.1834772199D-02
  0.6274579100D+03  0.1399462699D-01
  0.1429020900D+03  0.6858655195D-01
  0.4023432900D+02  0.2322408698D+00
  0.1282021300D+02  0.4690699496D+00
  0.4390437000D+01  0.3604551997D+00
 s    3  1.00
  0.1162636200D+02 -0.1149611854D+00
  0.2716279800D+01 -0.1691174879D+00
  0.7722184000D+00  0.1145851954D+01
 s    1  1.00
  0.2120315000D+00  0.1000000000D+01
 p    3  1.00
  0.1162636200D+02  0.6757974372D-01
  0.2716279800D+01  0.3239072986D+00
  0.7722184000D+00  0.7408951369D+00
 p    1  1.00
  0.2120315000D+00  0.1000000000D+01
  
  2 0
 s    6  1.00
  0.3047524900D+04  0.1834737091D-02
  0.4573695200D+03  0.1403732293D-01
  0.1039486800D+03  0.6884262165D-01
  0.2921015500D+02  0.2321844388D+00
  0.9286663000D+01  0.4679413476D+00
  0.3163927000D+01  0.3623119882D+00
 s    3  1.00
  0.7868272300D+01 -0.1193324245D+00
  0.1881288500D+01 -0.1608541561D+00
  0.5442492600D+00  0.1143456443D+01
 s    1  1.00
  0.1687144800D+00  0.1000000000D+01
 p    3  1.00
  0.7868272300D+01  0.6899906693D-01
  0.1881288500D+01  0.3164239597D+00
  0.5442492600D+00  0.7443082892D+00
 p    1  1.00
  0.1687144800D+00  0.1000000000D+01
  
  3 0
 s    6  1.00
  0.3047524900D+04  0.1834737091D-02
  0.4573695200D+03  0.1403732293D-01
  0.1039486800D+03  0.6884262165D-01
  0.2921015500D+02  0.2321844388D+00
  0.9286663000D+01  0.4679413476D+00
  0.3163927000D+01  0.3623119882D+00
 s    3  1.00
  0.7868272300D+01 -0.1193324245D+00
  0.1881288500D+01 -0.1608541561D+00
  0.5442492600D+00  0.1143456443D+01
 s    1  1.00
  0.1687144800D+00  0.1000000000D+01
 p    3  1.00
  0.7868272300D+01  0.6899906693D-01
  0.1881288500D+01  0.3164239597D+00
  0.5442492600D+00  0.7443082892D+00
 p    1  1.00
  0.1687144800D+00  0.1000000000D+01
  
  4 0
 s    6  1.00
  0.3047524900D+04  0.1834737091D-02
  0.4573695200D+03  0.1403732293D-01
  0.1039486800D+03  0.6884262165D-01
  0.2921015500D+02  0.2321844388D+00
  0.9286663000D+01  0.4679413476D+00
  0.3163927000D+01  0.3623119882D+00
 s    3  1.00
  0.7868272300D+01 -0.1193324245D+00
  0.1881288500D+01 -0.1608541561D+00
  0.5442492600D+00  0.1143456443D+01
 s    1  1.00
  0.1687144800D+00  0.1000000000D+01
 p    3  1.00
  0.7868272300D+01  0.6899906693D-01
  0.1881288500D+01  0.3164239597D+00
  0.5442492600D+00  0.7443082892D+00
 p    1  1.00
  0.1687144800D+00  0.1000000000D+01
  
  5 0
 s    6  1.00
  0.3047524900D+04  0.1834737091D-02
  0.4573695200D+03  0.1403732293D-01
  0.1039486800D+03  0.6884262165D-01
  0.2921015500D+02  0.2321844388D+00
  0.9286663000D+01  0.4679413476D+00
  0.3163927000D+01  0.3623119882D+00
 s    3  1.00
  0.7868272300D+01 -0.1193324245D+00
  0.1881288500D+01 -0.1608541561D+00
  0.5442492600D+00  0.1143456443D+01
 s    1  1.00
  0.1687144800D+00  0.1000000000D+01
 p    3  1.00
  0.7868272300D+01  0.6899906693D-01
  0.1881288500D+01  0.3164239597D+00
  0.5442492600D+00  0.7443082892D+00
 p    1  1.00
  0.1687144800D+00  0.1000000000D+01
  
  6 0
 s    6  1.00
  0.3047524900D+04  0.1834737091D-02
  0.4573695200D+03  0.1403732293D-01
  0.1039486800D+03  0.6884262165D-01
  0.2921015500D+02  0.2321844388D+00
  0.9286663000D+01  0.4679413476D+00
  0.3163927000D+01  0.3623119882D+00
 s    3  1.00
  0.7868272300D+01 -0.1193324245D+00
  0.1881288500D+01 -0.1608541561D+00
  0.5442492600D+00  0.1143456443D+01
 s    1  1.00
  0.1687144800D+00  0.1000000000D+01
 p    3  1.00
  0.7868272300D+01  0.6899906693D-01
  0.1881288500D+01  0.3164239597D+00
  0.5442492600D+00  0.7443082892D+00
 p    1  1.00
  0.1687144800D+00  0.1000000000D+01
  
  7 0
 s    6  1.00
  0.5484671700D+04  0.1831074396D-02
  0.8252349500D+03  0.1395017197D-01
  0.1880469600D+03  0.6844507786D-01
  0.5296450000D+02  0.2327143395D+00
  0.1689757000D+02  0.4701928990D+00
  0.5799635300D+01  0.3585208493D+00
 s    3  1.00
  0.1553961600D+02 -0.1107775519D+00
  0.3599933600D+01 -0.1480262626D+00
  0.1013761800D+01  0.1130767020D+01
 s    1  1.00
  0.2700058200D+00  0.1000000000D+01
 p    3  1.00
  0.1553961600D+02  0.7087426737D-01
  0.3599933600D+01  0.3397528370D+00
  0.1013761800D+01  0.7271585736D+00
 p    1  1.00
  0.2700058200D+00  0.1000000000D+01
  
  8 0
 s    6  1.00
  0.5484671700D+04  0.1831074396D-02
  0.8252349500D+03  0.1395017197D-01
  0.1880469600D+03  0.6844507786D-01
  0.5296450000D+02  0.2327143395D+00
  0.1689757000D+02  0.4701928990D+00
  0.5799635300D+01  0.3585208493D+00
 s    3  1.00
  0.1553961600D+02 -0.1107775519D+00
  0.3599933600D+01 -0.1480262626D+00
  0.1013761800D+01  0.1130767020D+01
 s    1  1.00
  0.2700058200D+00  0.1000000000D+01
 p    3  1.00
  0.1553961600D+02  0.7087426737D-01
  0.3599933600D+01  0.3397528370D+00
  0.1013761800D+01  0.7271585736D+00
 p    1  1.00
  0.2700058200D+00  0.1000000000D+01
  
  9 0
 s    3  1.00
  0.1873113700D+02  0.3349460400D-01
  0.2825394400D+01  0.2347269500D+00
  0.6401216900D+00  0.8137573301D+00
 s    1  1.00
  0.1612777600D+00  0.1000000000D+01
  
 10 0
 s    3  1.00
  0.1873113700D+02  0.3349460400D-01
  0.2825394400D+01  0.2347269500D+00
  0.6401216900D+00  0.8137573301D+00
 s    1  1.00
  0.1612777600D+00  0.1000000000D+01
  
 11 0
 s    3  1.00
  0.1873113700D+02  0.3349460400D-01
  0.2825394400D+01  0.2347269500D+00
  0.6401216900D+00  0.8137573301D+00
 s    1  1.00
  0.1612777600D+00  0.1000000000D+01
  
 12 0
 s    3  1.00
  0.1873113700D+02  0.3349460400D-01
  0.2825394400D+01  0.2347269500D+00
  0.6401216900D+00  0.8137573301D+00
 s    1  1.00
  0.1612777600D+00  0.1000000000D+01
  
 13 0
 s    3  1.00
  0.1873113700D+02  0.3349460400D-01
  0.2825394400D+01  0.2347269500D+00
  0.6401216900D+00  0.8137573301D+00
 s    1  1.00
  0.1612777600D+00  0.1000000000D+01
  
 14 0
 s    3  1.00
  0.1873113700D+02  0.3349460400D-01
  0.2825394400D+01  0.2347269500D+00
  0.6401216900D+00  0.8137573301D+00
 s    1  1.00
  0.1612777600D+00  0.1000000000D+01
  
 15 0
 s    3  1.00
  0.1873113700D+02  0.3349460400D-01
  0.2825394400D+01  0.2347269500D+00
  0.6401216900D+00  0.8137573301D+00
 s    1  1.00
  0.1612777600D+00  0.1000000000D+01
  
 16 0
 s    3  1.00
  0.1873113700D+02  0.3349460400D-01
  0.2825394400D+01  0.2347269500D+00
  0.6401216900D+00  0.8137573301D+00
 s    1  1.00
  0.1612777600D+00  0.1000000000D+01
  
 17 0
 s    3  1.00
  0.1873113700D+02  0.3349460400D-01
  0.2825394400D+01  0.2347269500D+00
  0.6401216900D+00  0.8137573301D+00
 s    1  1.00
  0.1612777600D+00  0.1000000000D+01
 
 
[MO]
 Sym=      1.1
 Ene=     -20.4481
 Spin= Alpha
 Occup=    2.000000
1 0.000019119129082
2 0.000165292486367
3 -0.001648790710221
4 -0.000052214250935
5 0.000009903636619
6 -0.000024620273450
7 0.000003824887648
8 0.000920224084919
9 -0.000132550676115
10 0.000002116033132
11 0.000073351199425
12 0.000229194023847
13 0.000056363489283
14 -0.000020462025541
15 -0.000056747449276
16 0.000027669549232
17 -0.000031198205692
18 0.000031037695844
19 0.000008316213884
20 0.000101888267242
21 -0.000028308764946
22 0.000033465191732
23 -0.000029961213606
24 -0.000019680635247
25 -0.000055371653403
26 -0.000175147002734
27 -0.000045742180981
28 0.000009337248471
29 0.000017766054655
30 -0.001635348390158
31 -0.000054671780861
32 -0.000142656200234
33 0.000068076405161
34 0.000131555954302
35 -0.000405322945157
36 0.000780793103127
37 -0.000064519536683
38 -0.000750059620236
39 0.003140190005311
40 0.000061299069158
41 0.000114647503390
42 0.000136009816051
43 -0.002311405539230
44 -0.001589301248844
45 -0.002559741268133
46 0.000161408345920
47 0.000259703319668
48 0.005364254515747
49 -0.000024431068212
50 0.000012187194904
51 0.000018031144028
52 0.007989782040940
53 0.001977537345168
54 0.002509575438585
55 0.99586124148102
56 0.023393884550763
57 -0.015214086725657
58 -0.002249876607013
59 -0.000401031246433
60 -0.000416473235116
61 0.004634919651857
62 0.000979535853716
63 0.001082756210413
64 -0.003215096398227
65 -0.000540047221291
66 0.001956545561648
67 0.000024847984470
68 -0.000066592068721
69 -0.000117709091442
70 -0.001037572720941
71 0.000342651173937
72 0.000721157390216
73 0.000011233821918
74 0.000061222044121
75 -0.000008653761968
76 -0.000069703034404
77 -0.000021977618025
78 0.000010718758475
79 -0.000007303538341
80 -0.000026396759937
81 0.000100516502422
82 0.000401521967379
83 0.000016780735607
84 -0.000346253959452
85 0.000062099142673
86 0.000585390019287
87 0.000026343556515
88 -0.000306328904307
89 0.000116323988683
90 0.001230066656519
 Sym=      2.1
 Ene=     -20.4366
 Spin= Alpha
 Occup=    2.000000
1 0.000006942071085
2 0.000096095920729
3 0.000349145516923
4 0.000116202882148
5 0.000002087978630
6 -0.000034458147071
7 -0.000875511824023
8 -0.000313121130691
9 0.000528993446541
10 0.000002644027597
11 -0.000027883296364
12 -0.000808385124260
13 -0.000072398017154
14 0.000010545324676
15 0.000007445418333
16 -0.000104325511833
17 -0.000006792240216
18 0.000167964423055
19 -0.000018156179874
20 -0.000174057789499
21 0.000235229866467
22 -0.000039837219220
23 -0.000027629062826
24 -0.000018798168087
25 0.000292613730656
26 0.000513990160529
27 0.000083750608754
28 0.000034833886549
29 0.000317151069675
30 -0.000463625871850
31 0.000079148792959
32 0.000030450812440
33 0.000006711677545
34 -0.000866464751133
35 0.000347972460402
36 -0.000160448227561
37 -0.000052478533376
38 -0.000589941878241
39 0.003395642694070
40 -0.000281215113042
41 0.000084723074115
42 0.000175520025403
43 0.003505492661480
44 0.000154898120327
45 0.000014423408728
46 0.000124410461975
47 0.000073563676861
48 0.003668740634259
49 0.000041919215012
50 -0.000044602551140
51 -0.000085231005247
52 -0.001359528378734
53 -0.004356625121225
54 -0.007458185506915
55 0.003183693462175
56 -0.000392609315410
57 0.001864966982525
58 0.000116320671158
59 -0.000014956698922
60 -0.000042799181904
61 -0.000906201274312
62 0.000547783869980
63 0.001082610813647
64 0.99588208331959
65 0.023195837570638
66 -0.014575073479452
67 0.000192678406259
68 0.001150685745644
69 0.001896462405555
70 -0.000886600480934
71 -0.002431753000827
72 -0.004082241664538
73 -0.000046933249979
74 -0.000186433346559
75 0.000043431784953
76 0.000196396349698
77 0.000040734717840
78 -0.000009988998102
79 0.000058714330291
80 0.000111208736431
81 -0.000016345349819
82 0.000120020044317
83 0.000119939302442
84 0.000175981146652
85 -0.000003975405602
86 0.000082685535575
87 0.000119437547972
88 0.000406707842941
89 -0.000371545576422
90 -0.000427033628734
 Sym=      3.1
 Ene=     -15.7403
 Spin= Alpha
 Occup=    2.000000
1 0.99612072735042
2 0.024992386655117
3 -0.017367667633410
4 -0.000149463361120
5 0.000069928188164
6 0.000097825709793
7 0.000514740683271
8 0.001274328939809
9 -0.001746260921722
10 -0.000031861863781
11 -0.000609100706628
12 0.006076027027697
13 0.000348363439914
14 0.000020214255981
15 -0.000169667794186
16 0.002235734193810
17 -0.000320386140867
18 -0.000582538715649
19 0.000027282331561
20 0.000140609786949
21 -0.001905881686103
22 0.000071693387311
23 -0.000098041330673
24 0.000122805287920
25 -0.000822469134973
26 -0.000673528555844
27 0.000214706620961
28 -0.000029684633565
29 -0.000360229957379
30 0.000265442252884
31 -0.000106597208919
32 -0.000146288482870
33 0.000129310528676
34 -0.000273685422682
35 0.000103334248308
36 -0.000031559947277
37 -0.000025850300287
38 -0.000620136679159
39 0.005000328230392
40 -0.000154297994994
41 0.000272870059666
42 -0.000094085157123
43 -0.002317020192053
44 0.001233242313218
45 -0.001295569053650
46 -0.000005833110576
47 -0.000172552202995
48 0.000107434468267
49 0.000134141414572
50 -0.000051850574867
51 -0.000089177164118
52 0.000386715705227
53 0.000002886046716
54 0.000552037563834
55 0.000002524476302
56 0.000069128730133
57 -0.000371798016278
58 -0.000012318283301
59 0.000015980247914
60 -0.000010125181468
61 0.000117541564134
62 0.000002408811912
63 0.000028953975564
64 0.000002212159441
65 0.000059553490160
66 0.000079442690044
67 -0.000033992360679
68 -0.000007560270539
69 0.000016277551085
70 0.000157557598191
71 0.000027776055670
72 -0.000037612081828
73 0.000153834086164
74 0.000104895199828
75 0.000031780094557
76 -0.000292362328486
77 -0.000309899149224
78 -0.000352021263923
79 -0.000256627020705
80 -0.000310542440126
81 0.000464952696551
82 0.001768565166772
83 0.000471198179009
84 0.001662519461089
85 -0.000027158168042
86 -0.000193108810183
87 -0.000021682849109
88 0.000269368405881
89 -0.000196089058483
90 -0.000093349551976
 Sym=      4.1
 Ene=     -11.3489
 Spin= Alpha
 Occup=    2.000000
1 -0.000069819846492
2 0.000132867651281
3 0.001425628896490
4 0.000040540409518
5 -0.000018856620977
6 -0.000009382589662
7 -0.001471791882473
8 0.000304867505992
9 0.000362295928711
10 0.99628917407306
11 0.026061493027249
12 -0.019206362379388
13 0.000726406775783
14 0.000190402535225
15 -0.000382617531339
16 -0.000989968875140
17 0.001020274072856
18 -0.000534209413041
19 0.004049291003861
20 -0.000493021022299
21 0.005457386313990
22 0.000035563215234
23 0.000054767787768
24 -0.000000891932717
25 -0.000034751469294
26 0.002017121618260
27 -0.001472273079473
28 -0.000085329817456
29 -0.000088589362204
30 -0.001312336740351
31 0.000072656339055
32 -0.000080917253561
33 0.000078134344220
34 -0.000150312640784
35 -0.000714337883399
36 -0.000282406575526
37 -0.000330792650357
38 -0.000506737287589
39 0.001761880476715
40 0.000113947827099
41 -0.000000515272133
42 -0.000045266525152
43 -0.001789127419260
44 0.000173358546894
45 0.000282410841714
46 0.000016149319675
47 -0.000065760278498
48 0.000815320709790
49 -0.000004321857979
50 0.000008893972385
51 -0.000019228396157
52 0.000272158727889
53 0.000424455962437
54 0.000806023931646
55 0.000005588772282
56 0.000090215194903
57 -0.000578257707312
58 -0.000001624191890
59 -0.000002178172061
60 -0.000000795671348
61 0.000189513172642
62 0.000005154779427
63 -0.000040014078385
64 -0.000004708456015
65 -0.000069108722362
66 0.000465967719152
67 -0.000019140313969
68 0.000005128131794
69 -0.000000720298985
70 0.000054478181584
71 0.000048763965584
72 0.000097105177307
73 -0.000196885487844
74 0.000080976099237
75 -0.000207219815129
76 -0.000140785938949
77 0.000174721290396
78 0.003309679675360
79 0.000149251544505
80 0.003021945392988
81 -0.000013764477146
82 0.000508186433738
83 -0.000003346689120
84 0.000284246421852
85 -0.000036710274199
86 -0.000235816317037
87 0.000066613345633
88 0.000312028989494
89 -0.000116727439594
90 -0.000040275128571
 Sym=      5.1
 Ene=     -11.3111
 Spin= Alpha
 Occup=    2.000000
1 -0.000094988918030
2 -0.000086304712562
3 0.003630688691286
4 -0.000001840167596
5 0.000035442278558
6 0.000009578264956
7 0.001729878037821
8 -0.001898751438357
9 0.000469612962244
10 0.000209752606301
11 -0.000539567580659
12 0.002166696889061
13 -0.000050437045143
14 -0.000043923216250
15 -0.000045712250971
16 0.000805374551522
17 -0.000050610431367
18 0.000405406901543
19 -0.000185559485663
20 -0.000050634002039
21 -0.001442450318320
22 -0.000101634689685
23 0.000023937824313
24 -0.000056736149507
25 -0.000062160953238
26 -0.000011493978321
27 0.001073937300419
28 0.006226718827472
29 -0.000581351552252
30 0.007438492175361
31 0.000198497504991
32 0.000121192697779
33 -0.000023135325092
34 0.000956273661480
35 0.002796200078720
36 -0.002251021018189
37 0.99435684639955
38 0.027282173737297
39 -0.025159183206046
40 -0.000979990279005
41 0.000496412475207
42 -0.000472963886761
43 0.002294041417237
44 0.001883388250638
45 0.002660529010661
46 0.063556850566659
47 0.000929799974544
48 0.005087364581222
49 -0.000139088359324
50 0.000027664815760
51 0.000110692544737
52 -0.004079425956663
53 0.000460882369153
54 0.001040286805589
55 -0.000037003290169
56 -0.000368554010855
57 0.001486547386447
58 0.000018937541513
59 0.000017956240498
60 0.000020969534957
61 -0.000184482095499
62 -0.000297630325955
63 -0.000385373285646
64 -0.000013612494564
65 -0.000162590911541
66 -0.000396640455066
67 0.000044064117902
68 -0.000044926530470
69 -0.000069096858182
70 0.000232922974506
71 -0.000051585408425
72 -0.000123292745545
73 -0.000049382477715
74 -0.000472840840741
75 0.000115017196746
76 0.000417147807517
77 -0.000157064480529
78 -0.000425576938195
79 -0.000023609790843
80 0.000217160085513
81 -0.000102912134673
82 0.000166768756367
83 0.000040236970121
84 0.000562634555923
85 -0.000378440640279
86 -0.000455876142860
87 -0.000138168064996
88 0.000530244852754
89 0.000181618477665
90 0.002588749483558
 Sym=      6.1
 Ene=     -11.3062
 Spin= Alpha
 Occup=    2.000000
1 -0.000006111761526
2 -0.000230923256463
3 -0.000142821142830
4 -0.000218135893123
5 0.000069566394963
6 0.000044245081912
7 0.000869663313782
8 -0.000131454296900
9 -0.000220221791043
10 -0.000062530329102
11 -0.000135156446153
12 0.001050838402983
13 0.000051449592225
14 -0.000030925889864
15 -0.000101323524307
16 0.000333556605204
17 0.000272513563323
18 0.000180644675339
19 -0.000025543757511
20 -0.000196867115306
21 0.001107131945542
22 -0.000009471704440
23 -0.000021869857437
24 -0.000053791177416
25 0.000619216174034
26 -0.000283036994656
27 0.000168846768353
28 -0.000662701227246
29 -0.000449841336613
30 0.000353981348810
31 -0.000243787617038
32 -0.000010777864440
33 0.000094858480361
34 0.001373953845797
35 -0.000110111968635
36 -0.000363201877098
37 -0.063755674289117
38 -0.002100230363468
39 0.006092887229314
40 -0.000019113590817
41 -0.000023767208871
42 0.000122480700742
43 0.002647276607515
44 -0.000896691683726
45 -0.002417962544803
46 0.99413034549923
47 0.024746755802962
48 -0.011903875551726
49 -0.000070689998553
50 0.000166127382968
51 0.000297184353272
52 0.005141898290990
53 -0.001259107385001
54 -0.002987159122239
55 -0.000340659158845
56 0.000398602219591
57 -0.001254189304549
58 -0.000288601768509
59 -0.000110091165360
60 -0.000173563344974
61 0.000732255155381
62 0.000658842951116
63 0.001123172508949
64 -0.000248791841497
65 0.000094155001198
66 0.000290207151997
67 0.000131163172693
68 0.000100976835937
69 0.000162300005779
70 -0.001182457907128
71 -0.000205315390291
72 -0.000186028901277
73 -0.000091806779001
74 -0.000134735036288
75 -0.000036648995671
76 0.000139697943268
77 -0.000104108489438
78 -0.000279814072615
79 -0.000016259222062
80 0.000068451882409
81 -0.000193411954553
82 0.000363146074813
83 -0.000127382565236
84 -0.000084118055687
85 -0.000172889034364
86 0.000138276542754
87 -0.000110958858474
88 -0.000285499907479
89 -0.000078363767483
90 0.000281227054531
 Sym=      7.1
 Ene=     -11.2818
 Spin= Alpha
 Occup=    2.000000
1 0.000004940504526
2 -0.000022998427738
3 -0.000762285201283
4 0.000050450146753
5 0.000026031352193
6 0.000014390886799
7 0.000238298067392
8 -0.000124758164649
9 -0.000577275327936
10 -0.004243312894360
11 -0.000752774507291
12 0.006312475721175