[Molden Format]
[Molpro variables]
_NUMVAR=  821.0000000000000    
_AVOGAD= 0.6022136736000000E+24
_BOLTZ= 0.1380658000000000E-22
_CLIGHT=  29979245800.00000    
_EV2006= 0.3674930886769165E-01
_EV= 0.3674932534394180E-01
_ENULL= 0.8854187817000000E-11
_KJOULE= 0.3808798324128737E-03
_KJOULE/MOL= 0.3808798324128737E-03
_CM= 0.4556335267302901E-05
_CM-1= 0.4556335267302901E-05
_DEB2SI= 0.3335641000000000E-29
_AMU2AU=  1822.888390000000    
_KCAL= 0.1593601117815568E-02
_KCAL/MOL= 0.1593601117815568E-02
_KELVIN2006= 0.3166828861084835E-05
_KELVIN= 0.3166814820820034E-05
_JOULE= 0.4359748200000000E-17
_HERTZ2006= 0.1519829850815779E-15
_HERTZ= 0.1519829846011223E-15
_HZ2006= 0.1519829850815779E-15
_HZ= 0.1519829846011223E-15
_JPCAL=  4.184000000000000    
_PLANCK= 0.6626075540000000E-33
_TOA2006= 0.5291772490000000    
_TOA= 0.5291772090000000    
_TOANG2006= 0.5291772490000000    
_TOANG= 0.5291772090000000    
_TORAD= 0.1745329251994330E-01
_TOCM=  219474.6306700000    
_TODEBYE=  2.541580000000000    
_TOEV2006=  27.21139610000000    
_TOE= 0.4803242000000000E-09
_TOEV=  27.21138390000000    
_TOHERTZ2006=  6579683899900000.    
_TOHERTZ=  6579683920700000.    
_TOHZ2006=  6579683899900000.    
_TOHZ=  6579683920700000.    
_TOK2006=  315773.3000000000    
_TOK=  315774.7000000000    
_TOKCAL=  627.5096000000000    
_TOKELVIN2006=  315773.3000000000    
_TOKELVIN=  315774.7000000000    
_TOKJ=  2625.500000000000    
_TOKJOULE=  2625.500000000000    
_TOKG= 0.1660565586000000E-26
_ANG2006=  1.889725988578923    
_ANG=  1.889726131421507    
_ANGSTROM2006=  1.889725988578923    
_ANGSTROM=  1.889726131421507    
_RPAREF=  0.000000000000000    
_RPADISS=  0.000000000000000    
_IGNORE_UNDEF=  2.000000000000000    
_STRICTCHECK=  0.000000000000000    
_SEW_ONEEL=  0.000000000000000    
_CPPDONE=FALSE
_DKROLL_DONE=  0.000000000000000    
_FOCKDONE=TRUE
_GRADONE=FALSE
_HESSDONE=FALSE
_INTDONE=TRUE
_SCFDONE=TRUE
_MODUL_BLOCK=FALSE
_MODUL_CUDA=FALSE
_MODUL_SLATER=FALSE
_MODUL_MRCC=FALSE
_MODUL_NBO6=FALSE
_MODUL_NECI=TRUE
_MODUL_AIMS=TRUE
_MRCC_EXEC=
_FITC_AO_SAVED=FALSE
_FITC_MO_SAVED=FALSE
_SHARED_FS=TRUE
_LSTYP=SEWARD
_INTYP=INTS
_GEOMTYP=ZMAT
_GRADTYP=ALASKA
_DIRECT=FALSE
_DKHO= -1.000000000000000    
_SYNCM=  0.000000000000000    
_BASIS=$BSET
_ZORIENT=  1.000000000000000    
_NELEC=  56.00000000000000    
!SPIN=  0.000000000000000    
_QSDSTEP=  0.000000000000000    
_QSDIRC=  0.000000000000000    
_PROGRAM=HF-SCF
_CPUSTEP= 0.4700000000000000    
_SYSSTEP= 0.1999999999999999E-01
_WALLSTEP= 0.4900000000000000    
!DFSCF=  0.000000000000000    
!SCSGRD=  0.000000000000000    
_BASINP=  610.0000000000000    
_CPUTOT=  1.580000000000000    
_CPUSORT= 0.1700000000000000    
_SYSSORT= 0.7000000000000001E-01
_WALLSORT= 0.2399999983608723    
_DFTEXFAC=  1.000000000000000    
_DMX= -2.995730999230481    
_DMY= -3.326851453099415    
_DMZ=  1.117553528887367    
_DMX_SCF= -2.995730999230481    
_DMY_SCF= -3.326851453099415    
_DMZ_SCF=  1.117553528887367    
_EHOMO=-0.3257715382027253    
_ELUMO= 0.1205291368764879    
_ENERGY= -396.4703675247320    
_ENUC=  322.1934244807184    
_GRADEXFAC=  9999.000000000000    
_GRADMETHOD=  1.000000000000000    
_NMRMETHOD=  0.000000000000000    
!GRID_FREEZE= -1.000000000000000    
_ITERATIONS=  11.00000000000000    
_LASTNELEC=  56.00000000000000    
_LASTSPIN=  0.000000000000000    
_LASTSYM=  1.000000000000000    
_MPP_PROG=  0.000000000000000    
_NPROC_MPP=  1.000000000000000    
_NPROC_MPPX=  1.000000000000000    
_NPROC_SMP=  1.000000000000000    
_NUMSTEP=  0.000000000000000    
_ORBITAL=  2100.200000000000    
_PI=  3.141592653589793    
_SEIG_MIN= 0.4357917679620656E-02
_SEWPROP=TRUE
_STATUS=  1.000000000000000    
_SYSTOT= 0.1200000000000000    
_VERSION=  2012001.000000000    
_WALLTOT=  1.700000000000000    
_DATE=23-Sep-15
_LASTORB=RHF
_MACHINE=Linux-3.2.0-90-generic/sce-chem-c01105(x86_64) 64 bit serial version
_OUTPUT=/home/s1267651/phd_mini_19Sept2015/protein/molpro2/serine_6-31g_scf.xml
_PGROUP=C1
_TIME=18:07:47
_LIBMOL=/usr/local/molpro/molprop_2012_1_Linux_x86_64_i8/lib/
!VIBCNT=  0.000000000000000    
!RGHFCNT=  0.000000000000000    
!SURFREC=  0.000000000000000    
!POLYREC=  0.000000000000000    
!DIPREC=  0.000000000000000    
!VSCFREC=  0.000000000000000    
!VCIREC=  0.000000000000000    
!PVCIREC=  0.000000000000000    
!VMP2REC=  0.000000000000000    
!VMCSCFREC=  0.000000000000000    
!VMRCIREC=  0.000000000000000    
!VIBINFO=  0.000000000000000    
!GAREC=  0.000000000000000    
!SCFORB=  21002.00000000000    
!NEWMOL= -1.000000000000000    
!NEWSYM= -1.000000000000000    
_SLFILES=slscratch
_NGSSTO=  9.000000000000000    
_SIN=SIN
_COS=COS
_TAN=TAN
_ACOS=ACOS
_ASIN=ASIN
_ATAN=ATAN
_COSH=COSH
_SINH=SINH
_TANH=TANH
_ABS=ABS
_MOD=MOD
_ERF=ERF
_REFC=REFC
_ERFC=ERFC
_HYPOT=HYPOT
_J0=J0
_J1=J1
_JN=JN
_GAMMA=GAMMA
_LGAMMA=LGAMMA
_Y0=Y0
_Y1=Y1
_YN=YN
_EXP=EXP
_LOG=LOG
_LOG10=LOG10
_SQRT=SQRT
_INT=INT
_NINT=NINT
_MAX=MAX
_MIN=MIN
_COSMO=  0.000000000000000    
_COSMOIT=  0.000000000000000    
_COSMOES=  0.000000000000000    
_COSMOEDS=  0.000000000000000    
_COSMOEC=  0.000000000000000    
_COSMOEDCORR=  0.000000000000000    
_FEPSI=  1.000000000000000    
_SL_IsMM=  0.000000000000000    
_SL_NSYM=  1.000000000000000    
_SL_System_BitSw=  0.000000000000000    
_SL_Unique_atoms=  0.000000000000000    
_SL_GRAD=  0.000000000000000    
_SL_MAXUPD_Hess=  5.000000000000000    
_SL_N_PRINT_COD=  5.000000000000000    
_SL_PRINT_CODES=  0.000000000000000    
_SL_BasType=  0.000000000000000    
_SL_Energy_Pred=  0.000000000000000    
_SL_New_Coords=  0.000000000000000    
_SL_Total_Nuclea=  0.000000000000000    
_SL_Highest_Mltp=  0.000000000000000    
_SL_Ref_Geom=  0.000000000000000    
_SL_Symmetry_ope=  1.000000000000000    
_SL_agrad=  0.000000000000000    
_SL_GrdMax=  0.000000000000000    
_SL_GrdNorm=  0.000000000000000    
_SL_GrdRMS=  0.000000000000000    
_SL_Hss_Q=  0.000000000000000    
_SL_Hss_X=  0.000000000000000    
_SL_BMxOld=  0.000000000000000    
_SL_KtB=  0.000000000000000    
!LATTICE= -1.000000000000000    
!NEWLATTICE=  0.000000000000000    
!LATGRAD_VAR=FALSE
!SEW_LATTICE=  1.000000000000000    
!LOCAL=  0.000000000000000    
!SAVEDOM= -1.000000000000000    
!RESTDOM= -1.000000000000000    
!SAVEDOM_HF= -1.000000000000000    
!RESTDOM_HF= -1.000000000000000    
!HESSREC=  0.000000000000000    
!FREQREC=  0.000000000000000    
!NMODREC=  0.000000000000000    
!GTASKS=  0.000000000000000    
!HTASKS=  0.000000000000000    
!THRCHG= 0.1000000000000000    
!DEBUG= -1.000000000000000    
!CFIT_CPHF=  0.000000000000000    
!RDOMAUX_CPHF=  3.000000000000000    
!THRAO_CPHF= 0.1000000000000000E-09
!THRMO_CPHF= 0.1000000000000000E-08
!THROV_CPHF= 0.1000000000000000E-11
!THRSW_CPHF= 0.1000000000000000E-09
!THRPROD_CPHF= 0.1000000000000000E-08
!THRAOPR_CPHF= 0.1000000000000000E-11
!CFIT_SCFGRD=  0.000000000000000    
!RDOMAUX_SCFGRD=  5.000000000000000    
!THRAO_SCFGRD= 0.1000000000000000E-09
!THRMO_SCFGRD= 0.1000000000000000E-08
!THROV_SCFGRD= 0.1000000000000000E-11
!THRSW_SCFGRD= 0.1000000000000000E-09
!THRPROD_SCFGRD= 0.1000000000000000E-08
!THRAOPR_SCFGRD= 0.1000000000000000E-11
!LOCFIT_SCF=  0.000000000000000    
!LOCFIT_MP2= -1.000000000000000    
_RIDOM=  0.000000000000000    
!CC2_METHOD=  0.000000000000000    
_BASIS2006=FALSE
_SVDDEL= -1.000000000000000    
_SVDDELA= -1.000000000000000    
_SVDDELP= -1.000000000000000    
_SVDDELF= -1.000000000000000    
_SVDDELS= -1.000000000000000    
_SVDDEL_ABS= -1.000000000000000    
_SVDDELA_ABS= -1.000000000000000    
_SVDDELP_ABS= -1.000000000000000    
_SVDDELF_ABS= -1.000000000000000    
_SVDDELS_ABS= -1.000000000000000    
_MAXBASIS=  0.000000000000000    
!OPT_CONICAL=  0.000000000000000    
!CLEARSP_JGRID=  0.000000000000000    
_4EXT_NDISKS=  1.000000000000000    
!ZMP=  0.000000000000000    
_MAXIT_ZMP=  500.0000000000000    
_MAXDIS_ZMP=  100.0000000000000    
_ACCU_ZMP=  14.00000000000000    
_SHIFTA_ZMP= -100.0000000000000    
!EMBEDFLAG=  1.000000000000000    
!EMBED=FALSE
!EMBED_F12=FALSE
!EMBEDNUC=  0.000000000000000    
_EMBEDENERGY=  0.000000000000000    
_KSPACETIME=  0.000000000000000    
_RSPACETIME=  0.000000000000000    
!EMBED_DFC=FALSE
!NUM_VOIDS=  0.000000000000000    
_IBODY=  0.000000000000000    
_EMBE_TOTAL=  0.000000000000000    
_EMBE_HF=  0.000000000000000    
_EMBE_CORR=  0.000000000000000    
!EDFT=  0.000000000000000    
_IFASTLATGRAD=  0.000000000000000    
_SINDEX=  0.000000000000000    
TITLE=SERINE
BSET=6-31G
GX1= 0.4310000000000000    
GY1= 0.7700000000000001E-01
GZ1=-0.2300000000000000    
GX2=-0.8960000000000000    
GY2= 0.7940000000000000    
GZ2= 0.1300000000000000E-01
GX3= -1.971000000000001    
GY3=-0.1430000000000000    
GZ3=-0.1000000000000000    
GX4= 0.6060000000000002    
GY4= -1.006000000000000    
GZ4= 0.7860000000000000    
GX5=  1.566000000000000    
GY5=  1.066000000000000    
GZ5=-0.1110000000000000    
GX6=  2.306000000000000    
GY6=  1.262000000000000    
GZ6= -1.060000000000000    
GX7=  1.751000000000000    
GY7=  1.693000000000000    
GZ7= 0.9780000000000000    
GX8= 0.4320000000000002    
GY8=-0.3580000000000000    
GZ8= -1.227000000000000    
GX9= -1.023000000000000    
GY9=  1.582000000000000    
GZ9=-0.7260000000000000    
GX10=-0.8970000000000000    
GY10=  1.228000000000000    
GZ10=  1.010000000000000    
GX11=-0.1720000000000000    
GY11= -1.684000000000000    
GZ11= 0.7040000000000002    
GX12=  1.505000000000000    
GY12= -1.492000000000000    
GZ12= 0.6210000000000000    
GX13= 0.6050000000000000    
GY13=-0.5930000000000000    
GZ13=  1.735000000000000    
GX14= -2.818000000000000    
GY14= 0.3050000000000000    
GZ14= 0.5300000000000001E-01
STR=../input/SERINE_6-31G_scf.mld
[Atoms] Angs
C     1    6         0.4310000000        0.0770000000       -0.2300000000
C     2    6        -0.8960000000        0.7940000000        0.0130000000
O     3    8        -1.9710000000       -0.1430000000       -0.1000000000
N     4    7         0.6060000000       -1.0060000000        0.7860000000
C     5    6         1.5660000000        1.0660000000       -0.1110000000
O     6    8         2.3060000000        1.2620000000       -1.0600000000
O     7    8         1.7510000000        1.6930000000        0.9780000000
H     8    1         0.4320000000       -0.3580000000       -1.2270000000
H     9    1        -1.0230000000        1.5820000000       -0.7260000000
H    10    1        -0.8970000000        1.2280000000        1.0100000000
H    11    1        -0.1720000000       -1.6840000000        0.7040000000
H    12    1         1.5050000000       -1.4920000000        0.6210000000
H    13    1         0.6050000000       -0.5930000000        1.7350000000
H    14    1        -2.8180000000        0.3050000000        0.0530000000
[GTO]
  1 0
 s    6  1.00
  0.3047524900D+04  0.1834737091D-02
  0.4573695200D+03  0.1403732293D-01
  0.1039486800D+03  0.6884262165D-01
  0.2921015500D+02  0.2321844388D+00
  0.9286663000D+01  0.4679413476D+00
  0.3163927000D+01  0.3623119882D+00
 s    3  1.00
  0.7868272300D+01 -0.1193324245D+00
  0.1881288500D+01 -0.1608541561D+00
  0.5442492600D+00  0.1143456443D+01
 s    1  1.00
  0.1687144800D+00  0.1000000000D+01
 p    3  1.00
  0.7868272300D+01  0.6899906693D-01
  0.1881288500D+01  0.3164239597D+00
  0.5442492600D+00  0.7443082892D+00
 p    1  1.00
  0.1687144800D+00  0.1000000000D+01
  
  2 0
 s    6  1.00
  0.3047524900D+04  0.1834737091D-02
  0.4573695200D+03  0.1403732293D-01
  0.1039486800D+03  0.6884262165D-01
  0.2921015500D+02  0.2321844388D+00
  0.9286663000D+01  0.4679413476D+00
  0.3163927000D+01  0.3623119882D+00
 s    3  1.00
  0.7868272300D+01 -0.1193324245D+00
  0.1881288500D+01 -0.1608541561D+00
  0.5442492600D+00  0.1143456443D+01
 s    1  1.00
  0.1687144800D+00  0.1000000000D+01
 p    3  1.00
  0.7868272300D+01  0.6899906693D-01
  0.1881288500D+01  0.3164239597D+00
  0.5442492600D+00  0.7443082892D+00
 p    1  1.00
  0.1687144800D+00  0.1000000000D+01
  
  3 0
 s    6  1.00
  0.5484671700D+04  0.1831074396D-02
  0.8252349500D+03  0.1395017197D-01
  0.1880469600D+03  0.6844507786D-01
  0.5296450000D+02  0.2327143395D+00
  0.1689757000D+02  0.4701928990D+00
  0.5799635300D+01  0.3585208493D+00
 s    3  1.00
  0.1553961600D+02 -0.1107775519D+00
  0.3599933600D+01 -0.1480262626D+00
  0.1013761800D+01  0.1130767020D+01
 s    1  1.00
  0.2700058200D+00  0.1000000000D+01
 p    3  1.00
  0.1553961600D+02  0.7087426737D-01
  0.3599933600D+01  0.3397528370D+00
  0.1013761800D+01  0.7271585736D+00
 p    1  1.00
  0.2700058200D+00  0.1000000000D+01
  
  4 0
 s    6  1.00
  0.4173511500D+04  0.1834772199D-02
  0.6274579100D+03  0.1399462699D-01
  0.1429020900D+03  0.6858655195D-01
  0.4023432900D+02  0.2322408698D+00
  0.1282021300D+02  0.4690699496D+00
  0.4390437000D+01  0.3604551997D+00
 s    3  1.00
  0.1162636200D+02 -0.1149611854D+00
  0.2716279800D+01 -0.1691174879D+00
  0.7722184000D+00  0.1145851954D+01
 s    1  1.00
  0.2120315000D+00  0.1000000000D+01
 p    3  1.00
  0.1162636200D+02  0.6757974372D-01
  0.2716279800D+01  0.3239072986D+00
  0.7722184000D+00  0.7408951369D+00
 p    1  1.00
  0.2120315000D+00  0.1000000000D+01
  
  5 0
 s    6  1.00
  0.3047524900D+04  0.1834737091D-02
  0.4573695200D+03  0.1403732293D-01
  0.1039486800D+03  0.6884262165D-01
  0.2921015500D+02  0.2321844388D+00
  0.9286663000D+01  0.4679413476D+00
  0.3163927000D+01  0.3623119882D+00
 s    3  1.00
  0.7868272300D+01 -0.1193324245D+00
  0.1881288500D+01 -0.1608541561D+00
  0.5442492600D+00  0.1143456443D+01
 s    1  1.00
  0.1687144800D+00  0.1000000000D+01
 p    3  1.00
  0.7868272300D+01  0.6899906693D-01
  0.1881288500D+01  0.3164239597D+00
  0.5442492600D+00  0.7443082892D+00
 p    1  1.00
  0.1687144800D+00  0.1000000000D+01
  
  6 0
 s    6  1.00
  0.5484671700D+04  0.1831074396D-02
  0.8252349500D+03  0.1395017197D-01
  0.1880469600D+03  0.6844507786D-01
  0.5296450000D+02  0.2327143395D+00
  0.1689757000D+02  0.4701928990D+00
  0.5799635300D+01  0.3585208493D+00
 s    3  1.00
  0.1553961600D+02 -0.1107775519D+00
  0.3599933600D+01 -0.1480262626D+00
  0.1013761800D+01  0.1130767020D+01
 s    1  1.00
  0.2700058200D+00  0.1000000000D+01
 p    3  1.00
  0.1553961600D+02  0.7087426737D-01
  0.3599933600D+01  0.3397528370D+00
  0.1013761800D+01  0.7271585736D+00
 p    1  1.00
  0.2700058200D+00  0.1000000000D+01
  
  7 0
 s    6  1.00
  0.5484671700D+04  0.1831074396D-02
  0.8252349500D+03  0.1395017197D-01
  0.1880469600D+03  0.6844507786D-01
  0.5296450000D+02  0.2327143395D+00
  0.1689757000D+02  0.4701928990D+00
  0.5799635300D+01  0.3585208493D+00
 s    3  1.00
  0.1553961600D+02 -0.1107775519D+00
  0.3599933600D+01 -0.1480262626D+00
  0.1013761800D+01  0.1130767020D+01
 s    1  1.00
  0.2700058200D+00  0.1000000000D+01
 p    3  1.00
  0.1553961600D+02  0.7087426737D-01
  0.3599933600D+01  0.3397528370D+00
  0.1013761800D+01  0.7271585736D+00
 p    1  1.00
  0.2700058200D+00  0.1000000000D+01
  
  8 0
 s    3  1.00
  0.1873113700D+02  0.3349460400D-01
  0.2825394400D+01  0.2347269500D+00
  0.6401216900D+00  0.8137573301D+00
 s    1  1.00
  0.1612777600D+00  0.1000000000D+01
  
  9 0
 s    3  1.00
  0.1873113700D+02  0.3349460400D-01
  0.2825394400D+01  0.2347269500D+00
  0.6401216900D+00  0.8137573301D+00
 s    1  1.00
  0.1612777600D+00  0.1000000000D+01
  
 10 0
 s    3  1.00
  0.1873113700D+02  0.3349460400D-01
  0.2825394400D+01  0.2347269500D+00
  0.6401216900D+00  0.8137573301D+00
 s    1  1.00
  0.1612777600D+00  0.1000000000D+01
  
 11 0
 s    3  1.00
  0.1873113700D+02  0.3349460400D-01
  0.2825394400D+01  0.2347269500D+00
  0.6401216900D+00  0.8137573301D+00
 s    1  1.00
  0.1612777600D+00  0.1000000000D+01
  
 12 0
 s    3  1.00
  0.1873113700D+02  0.3349460400D-01
  0.2825394400D+01  0.2347269500D+00
  0.6401216900D+00  0.8137573301D+00
 s    1  1.00
  0.1612777600D+00  0.1000000000D+01
  
 13 0
 s    3  1.00
  0.1873113700D+02  0.3349460400D-01
  0.2825394400D+01  0.2347269500D+00
  0.6401216900D+00  0.8137573301D+00
 s    1  1.00
  0.1612777600D+00  0.1000000000D+01
  
 14 0
 s    3  1.00
  0.1873113700D+02  0.3349460400D-01
  0.2825394400D+01  0.2347269500D+00
  0.6401216900D+00  0.8137573301D+00
 s    1  1.00
  0.1612777600D+00  0.1000000000D+01
 
 
[MO]
 Sym=      1.1
 Ene=     -20.6042
 Spin= Alpha
 Occup=    2.000000
1 0.000046205390187
2 0.000260576947024
3 -0.002583818158066
4 0.000122392947279
5 -0.000018355635757
6 0.000025766657384
7 0.000658390097075
8 -0.000579915468512
9 -0.000440990152462
10 -0.000063974701495
11 -0.000726129305904
12 0.006392105905053
13 -0.000251429478654
14 -0.000095474985178
15 -0.000029384909037
16 -0.001732362229418
17 -0.002321177929195
18 -0.000113638383806
19 0.99582619771439
20 0.022745723540591
21 -0.010921762827554
22 -0.000044582477815
23 0.001906412024517
24 0.000462801020267
25 -0.001163789265921
26 -0.002848564289191
27 -0.000574597833408
28 0.000009554003069
29 0.000145195893697
30 -0.000074903840024
31 -0.000013554935865
32 0.000054926712425
33 -0.000009104238262
34 0.000118549989269
35 -0.000051275142338
36 -0.000080835321163
37 -0.000036658265123
38 -0.000386740280262
39 0.001442697071718
40 0.000090711879689
41 -0.000015662028635
42 0.000000845056617
43 -0.001208255004333
44 -0.000011535308023
45 0.000601947999759
46 -0.000021348037110
47 -0.000087350960852
48 0.000469492256288
49 -0.000021237617476
50 0.000014202424973
51 -0.000009716020521
52 0.000107882941911
53 -0.000081572631613
54 0.000145377121697
55 0.000010342729866
56 0.000056407768173
57 -0.000556031754028
58 0.000007897380601
59 0.000007150252756
60 -0.000010233714878
61 0.000187934807298
62 0.000099104970227
63 0.000160579958375
64 0.000069896596248
65 -0.000111091117236
66 -0.000320125328621
67 -0.000273351345811
68 -0.000375979276173
69 -0.000439762405301
70 -0.000058482875776
71 0.000196903422318
72 -0.000009964469595
73 -0.000103697220688
74 0.000103272776952
75 -0.000055504554196
76 0.000384296232259
77 0.001490128976056
 Sym=      2.1
 Ene=     -20.4589
 Spin= Alpha
 Occup=    2.000000
1 -0.000053096497015
2 -0.000650381021333
3 0.002834311570449
4 -0.000016964456141
5 -0.000086663731055
6 -0.000139833875967
7 -0.000824717516343
8 0.000818290712978
9 0.003358972126571
10 0.000007879541627
11 -0.000013497625593
12 -0.001451780477482
13 -0.000076973555288
14 0.000043444262157
15 0.000004150670736
16 -0.000314737964964
17 0.000939166000953
18 -0.000685127922998
19 0.000010436920745
20 -0.000098030388486
21 0.000503872069784
22 -0.000002531657784
23 -0.000001567025254
24 -0.000003301438129
25 0.000167661499065
26 0.000104677632795
27 0.000101387314912
28 0.000008768599904
29 0.000048582462844
30 -0.001150339392138
31 -0.000044857532201
32 -0.000034140754172
33 0.000020403087835
34 0.000730685429777
35 -0.000562515794338
36 0.000082999751588
37 0.000160010110630
38 0.000241850528860
39 0.005590499119863
40 -0.000039516792741
41 -0.000024333282401
42 0.000003180125252
43 0.004974189553132
44 0.001026512601499
45 -0.007000533133920
46 0.99586145121271
47 0.023413555391654
48 -0.015328937611307
49 -0.001500831191086
50 -0.000500219961506
51 0.001720651267347
52 0.003035222264472
53 0.000875087445650
54 -0.003750655153925
55 -0.003607199722749
56 -0.000568316074104
57 0.002000372135061
58 0.000063473138158
59 0.000090892933059
60 0.000088646859479
61 -0.001032992275036
62 -0.000849994677284
63 -0.000013112833483
64 0.000131861120760
65 0.001150069123288
66 0.000023352068211
67 -0.000626060974988
68 0.000039992292936
69 0.000444918964449
70 0.000104251953602
71 0.000163313204738
72 -0.000009271335238
73 -0.000503640232801
74 0.000012825499906
75 0.000287089854109
76 -0.000035503502128
77 0.000005172457322
 Sym=      3.1
 Ene=     -20.4485
 Spin= Alpha
 Occup=    2.000000
1 -0.000071248208071
2 -0.000766849556802
3 0.003933624600296
4 -0.000237193922741
5 -0.000210555614996
6 0.000001933722088
7 0.002182406292826
8 0.001160259723351
9 -0.001941132058912
10 0.000037742508868
11 0.000323706847601
12 -0.000691808806971
13 0.000015861390672
14 0.000008599667802
15 -0.000038723011865
16 -0.000682031525777
17 -0.000755448035479
18 0.000608287015122
19 -0.000001915722211
20 0.000027626032057
21 -0.000297675983416
22 -0.000035571866253
23 0.000026279628197
24 0.000024018075693
25 0.000144851487489
26 -0.000201653782742
27 -0.000172074685972
28 0.000018570111223
29 0.000209364226828
30 -0.000226513918127
31 0.000079241045033
32 0.000041396237247
33 -0.000009257509306
34 -0.000949649505510
35 -0.000282296267362
36 0.000073390071307
37 0.000117435443190
38 -0.000012547090506
39 0.003965816018053
40 0.000087419333302
41 0.000079809485149
42 0.000037564629238
43 0.001432876435621
44 0.004464803378695
45 0.007466451102198
46 0.003574045920929
47 -0.000404738867697
48 0.001945366880152
49 0.000099907078369
50 0.000070137183477
51 -0.000033124403056
52 -0.001041932584090
53 -0.001044613561073
54 -0.000397501690478
55 0.99588342936642
56 0.023214403554572
57 -0.014717553742235
58 -0.000499139478963
59 -0.001241752456302
60 -0.001797458133189
61 0.000780570079395
62 0.002481521737000
63 0.004152688335464
64 -0.000416369364649
65 -0.000450681261209
66 0.000193848989290
67 0.000458000116135
68 -0.000015126229177
69 -0.000010635715792
70 -0.000096567971286
71 -0.000257729570391
72 0.000230603042728
73 0.000188702922709
74 0.000021963845632
75 0.000072983796573
76 0.000108291387850
77 -0.000014716232546
 Sym=      4.1
 Ene=     -15.7514
 Spin= Alpha
 Occup=    2.000000
1 0.000001283212440
2 -0.000473282449468
3 0.003613382635574
4 0.000039610683369
5 -0.000191274892694
6 0.000126842246927
7 0.000235490042609
8 -0.001917774972256
9 0.001248831296687
10 -0.000026948583009
11 -0.000334380150611
12 0.000539561467145
13 -0.000124797947723
14 0.000142175047720
15 -0.000082974559514
16 -0.000050334491199
17 -0.000530598939837
18 0.000332348983246
19 0.000009635496890
20 0.000155249677200
21 -0.000585175899121
22 0.000022166972566
23 -0.000018195941812
24 -0.000022206669820
25 -0.000376532124792
26 0.000044800387554
27 -0.000015301221921
28 0.99604772963987
29 0.024371902216796
30 -0.014228015564447
31 0.000000653135713
32 -0.000091139861663
33 0.000021292000849
34 0.000207992346557
35 -0.000952304337155
36 0.000904712499171
37 -0.000026473960113
38 -0.000365550808667
39 0.000664400705938
40 0.000138660562552
41 0.000153691563624
42 -0.000021542906755
43 -0.000576743708193
44 -0.000111075710602
45 0.000449026476843
46 -0.000003598122438
47 -0.000030717832005
48 0.000310903009249
49 0.000003006468720
50 -0.000039649959724
51 0.000017871274447
52 -0.000051697448461
53 0.000098330908540
54 -0.000004841864985
55 0.000008429201331
56 0.000149635723133
57 -0.000599338608581
58 -0.000036352308252
59 -0.000000512415171
60 0.000005098403830
61 0.000264918861365
62 0.000209852715988
63 0.000061944329792
64 -0.000230116948503
65 -0.000313105840192
66 0.000001000760181
67 0.000481259720783
68 -0.000049606106729
69 -0.000372425456647
70 0.000302549816310
71 0.001912180495432
72 0.000315913000482
73 0.001813204445727
74 0.000326773991844
75 0.001871590784504
76 -0.000019801395212
77 -0.000120391044565
 Sym=      5.1
 Ene=     -11.3263
 Spin= Alpha
 Occup=    2.000000
1 0.33686913012177
2 0.009085374631712
3 -0.006241075521917
4 -0.000114237174594
5 -0.000234173576309
6 0.000332212327310
7 -0.001994372059381
8 0.000378429589558
9 -0.001540540381290
10 0.93748063653594
11 0.023941194686113
12 -0.013825362910368
13 -0.000135358067385
14 -0.000551987692117
15 -0.000041918259065
16 -0.000421467504993
17 -0.000287821345961
18 0.000261195197765
19 -0.000062601004044
20 -0.000000377443218
21 0.001166720250137
22 -0.000035297190323
23 0.000064107509442
24 0.000038155428880
25 0.000519934302641
26 -0.000094151971910
27 -0.000146483496618
28 -0.000056081556368
29 -0.000379708536919
30 0.002205826352050
31 0.000157224351690
32 -0.000097154250707
33 0.000024943131147
34 -0.000974007524535
35 0.001251427020678
36 -0.000480230126917
37 0.011917140319541
38 -0.000406064394003
39 0.003369069659504
40 0.000064378218892
41 0.000016803131708
42 -0.000013905047858
43 -0.002229243222595
44 -0.001176098120567
45 0.001247577884290
46 -0.000014761728099
47 -0.000193840395675
48 0.001013010491986
49 -0.000039404365316
50 0.000008980816021
51 -0.000023849913969
52 0.000124367953318
53 0.000020876261758
54 0.000316221799121
55 0.000006102722963
56 0.000039728000248
57 -0.000806119715031
58 0.000033555870557
59 0.000010241665095
60 0.000043831133066
61 0.000305601723038
62 0.000295843666927
63 0.000017708002098
64 -0.000078771610780
65 0.001059146495432
66 0.000098580936100
67 0.002948344006843
68 0.000019605381638
69 0.002942022357300
70 -0.000225880865606
71 0.000039574021387
72 0.000124561210739
73 0.000693813135036
74 -0.000189901046192
75 -0.000039494742105
76 0.000139891923494
77 0.000488520380369
 Sym=      6.1
 Ene=     -11.3253
 Spin= Alpha
 Occup=    2.000000
1 0.93679135873267
2 0.025621330168097
3 -0.024044878785322
4 -0.000168165319052
5 -0.000635505060040
6 0.000841787667797
7 0.001132777092314
8 -0.001273195545247
9 -0.002349373325146
10 -0.33717604613393
11 -0.009205462062714
12 0.011772239468489
13 0.000213196208603
14 0.000178359950309
15 -0.000030365069059
16 0.003067846137953
17 -0.001767210204246
18 0.000279077839436
19 0.000031624852947
20 -0.000016158406763
21 -0.001030617411244
22 -0.000117540112159
23 -0.000022427357918
24 0.000032858084967
25 0.000063694657264
26 -0.000110911030805
27 -0.000194390071872
28 -0.000087207130421
29 -0.000052749270456
30 0.003386395909472
31 -0.000051340809975
32 0.000023795041591
33 0.000064428520130
34 -0.000044795226846
35 0.001451232241097
36 -0.001362077731177
37 0.039970557124824
38 0.000585598202448
39 0.004168032285973
40 -0.000181843192735
41 -0.000096805875601
42 -0.000006667898028
43 -0.002461915477185
44 -0.002230030667803
45 0.000306313613787
46 -0.000022783893321
47 -0.000286521479949
48 0.000822303953462
49 0.000040179100815
50 -0.000007762847734
51 -0.000027592608796
52 -0.000042578642326
53 0.000297273622321
54 0.000340543488901
55 -0.000017266014601
56 -0.000294372642734
57 0.000500069068192
58 0.000041333592145
59 0.000070235661416
60 0.000031317420481
61 0.000062565131260
62 -0.000042668456668
63 -0.000217287731456
64 0.000341589193519
65 0.002728261947475
66 -0.000148155054462
67 -0.000807853097552
68 -0.000308501751007
69 -0.001303750199334
70 0.000041324848856
71 0.000324297968439
72 -0.000067984702178
73 0.000125270494610
74 0.000031628706958
75 0.000501624678684
76 0.000127913561488
77 0.000218422174058
 Sym=      7.1
 Ene=     -11.3180
 Spin= Alpha
 Occup=    2.000000
1 -0.041830173011915
2 -0.001461632147736
3 0.005295688248239
4 -0.000050870022709
5 0.000039020494208
6 -0.000042247102908
7 0.002457661426414
8 0.001860239610124
9 -0.000176171363413
10 0.002210446122700
11 -0.000468526704468
12 0.000623381951019
13 -0.000168907718027
14 -0.000039777643437
15 0.000005358897334
16 0.001554944472826
17 0.000814386081336
18 0.000220541343230
19 -0.000016485226449
20 -0.000261529077188
21 0.001125218361162
22 -0.000057716954497
23 -0.000022450281966
24 0.000010065598518
25 0.000535841671929
26 0.000319018610589
27 -0.000022005597531
28 -0.000023191083924
29 -0.000390683766371
30 0.000481038969087
31 -0.000116710330636
32 -0.000214574534776
33 0.000044001598026
34 0.000605672180191
35 0.001064849779851
36 -0.000067164102866
37 0.99528653122250
38 0.024882309598081
39 -0.011700023526113
40 -0.000253310464678
41 -0.000285919042311
42 -0.000198819975244
43 0.004725924382289
44 0.003494941362340
45 -0.000444167214437
46 -0.000345570589396
47 0.000374417126834
48 -0.001164306972770
49 -0.000147235087922
50 0.000005700181169
51 0.000327446452960
52 0.000101029807015
53 -0.000438042223839
54 -0.001383168952179
55 -0.000250678529523
56 0.000036295178676
57 0.000448833735380
58 0.000045207790201
59 -0.000049204416963
60 -0.000217636295914
61 -0.000844555952727
62 -0.000321810941803
63 0.000832972429321
64 -0.000150595282403
65 0.000055130348493
66 -0.000230129766637
67 0.000087302775029
68 -0.000178491926459
69 -0.000193077194065
70 0.000170493945563
71 0.000668446059630
72 -0.000265042109125
73 0.000238231124565
74 -0.000257434401809
75 -0.000007034314071
76 -0.000051331994532
77 0.000301573008680
 Sym=      8.1
 Ene=      -1.4121
 Spin= Alpha
 Occup=    2.000000
1 -0.039445145955413
2 0.072492050711821
3 0.059484624504071
4 -0.014295185112307
5 -0.007748601905090
6 0.018502147819049
7 -0.010739825095320
8 0.010988831527976
9 0.003450150241047
10 -0.072420847905471
11 0.14513237882832
12 0.017453686979804
13 -0.056612947016244
14 -0.059542440714101
15 -0.004872826019654
16 0.011893219742490
17 0.027402072390108
18 0.003463078209591
19 -0.18891186810863
20 0.40731661963432
21 0.45761876364714
22 0.000546347476593
23 0.085058873236344
24 0.020399890088404
25 0.019269419132989
26 0.059091119813318
27 0.014664166374555
28 -0.061564484743987
29 0.12650388183867
30 0.14240913850481
31 -0.005538126440840
32 0.008068480151033
33 -0.006776775750357
34 -0.004691090087198
35 0.004999772238461
36 -0.003872430802751
37 -0.023823438612780
38 0.055085932299578
39 -0.013386142323568
40 0.002272136005607
41 0.000847029278673
42 -0.001323290731420
43 0.008347360983595
44 -0.006091061266547
45 -0.007947533730874
46 -0.018789350830207
47 0.041671862012887
48 0.035079508860601
49 -0.010865983098093
50 -0.003520731746819
51 0.013623338865845
52 -0.005023425799239
53 0.000182659284494
54 0.004784515625962
55 -0.016737583605904
56 0.035234420000605
57 0.044036926981730
58 -0.003203227240436
59 -0.008471291697742
60 -0.012436890874957
61 -0.002925543952634
62 -0.004887215008817
63 -0.007834530791131
64 0.013938873691205
65 0.001419671235355
66 0.024511892076132
67 -0.002156058368121
68 0.026067776427754
69 0.000192519700303
70 0.033190420841663
71 -0.002395688721234
72 0.030503891766514
73 -0.002620768274152
74 0.030781781919865
75 -0.004319481056997
76 0.11278973941014
77 -0.006060725655231
 Sym=      9.1
 Ene=      -1.3803