[Molden Format]
[Molpro variables]
_NUMVAR=  830.0000000000000    
_AVOGAD= 0.6022136736000000E+24
_BOLTZ= 0.1380658000000000E-22
_CLIGHT=  29979245800.00000    
_EV2006= 0.3674930886769165E-01
_EV= 0.3674932534394180E-01
_ENULL= 0.8854187817000000E-11
_KJOULE= 0.3808798324128737E-03
_KJOULE/MOL= 0.3808798324128737E-03
_CM= 0.4556335267302901E-05
_CM-1= 0.4556335267302901E-05
_DEB2SI= 0.3335641000000000E-29
_AMU2AU=  1822.888390000000    
_KCAL= 0.1593601117815568E-02
_KCAL/MOL= 0.1593601117815568E-02
_KELVIN2006= 0.3166828861084835E-05
_KELVIN= 0.3166814820820034E-05
_JOULE= 0.4359748200000000E-17
_HERTZ2006= 0.1519829850815779E-15
_HERTZ= 0.1519829846011223E-15
_HZ2006= 0.1519829850815779E-15
_HZ= 0.1519829846011223E-15
_JPCAL=  4.184000000000000    
_PLANCK= 0.6626075540000000E-33
_TOA2006= 0.5291772490000000    
_TOA= 0.5291772090000000    
_TOANG2006= 0.5291772490000000    
_TOANG= 0.5291772090000000    
_TORAD= 0.1745329251994330E-01
_TOCM=  219474.6306700000    
_TODEBYE=  2.541580000000000    
_TOEV2006=  27.21139610000000    
_TOE= 0.4803242000000000E-09
_TOEV=  27.21138390000000    
_TOHERTZ2006=  6579683899900000.    
_TOHERTZ=  6579683920700000.    
_TOHZ2006=  6579683899900000.    
_TOHZ=  6579683920700000.    
_TOK2006=  315773.3000000000    
_TOK=  315774.7000000000    
_TOKCAL=  627.5096000000000    
_TOKELVIN2006=  315773.3000000000    
_TOKELVIN=  315774.7000000000    
_TOKJ=  2625.500000000000    
_TOKJOULE=  2625.500000000000    
_TOKG= 0.1660565586000000E-26
_ANG2006=  1.889725988578923    
_ANG=  1.889726131421507    
_ANGSTROM2006=  1.889725988578923    
_ANGSTROM=  1.889726131421507    
_RPAREF=  0.000000000000000    
_RPADISS=  0.000000000000000    
_IGNORE_UNDEF=  2.000000000000000    
_STRICTCHECK=  0.000000000000000    
_SEW_ONEEL=  0.000000000000000    
_CPPDONE=FALSE
_DKROLL_DONE=  0.000000000000000    
_FOCKDONE=TRUE
_GRADONE=FALSE
_HESSDONE=FALSE
_INTDONE=TRUE
_SCFDONE=TRUE
_MODUL_BLOCK=FALSE
_MODUL_CUDA=FALSE
_MODUL_SLATER=FALSE
_MODUL_MRCC=FALSE
_MODUL_NBO6=FALSE
_MODUL_NECI=TRUE
_MODUL_AIMS=TRUE
_MRCC_EXEC=
_FITC_AO_SAVED=FALSE
_FITC_MO_SAVED=FALSE
_SHARED_FS=TRUE
_LSTYP=SEWARD
_INTYP=INTS
_GEOMTYP=ZMAT
_GRADTYP=ALASKA
_DIRECT=FALSE
_DKHO= -1.000000000000000    
_SYNCM=  0.000000000000000    
_BASIS=$BSET
_ZORIENT=  1.000000000000000    
_NELEC=  64.00000000000000    
!SPIN=  0.000000000000000    
_QSDSTEP=  0.000000000000000    
_QSDIRC=  0.000000000000000    
_PROGRAM=HF-SCF
_CPUSTEP= 0.8300000000000001    
_SYSSTEP= 0.6000000000000000E-01
_WALLSTEP= 0.9000000000000000    
!DFSCF=  0.000000000000000    
!SCSGRD=  0.000000000000000    
_BASINP=  610.0000000000000    
_CPUTOT=  2.750000000000000    
_CPUSORT= 0.3199999999999998    
_SYSSORT= 0.1000000000000000    
_WALLSORT= 0.4100000001490116    
_DFTEXFAC=  1.000000000000000    
_DMX= -3.612414426315759    
_DMY= -4.027653589175472    
_DMZ= 0.4940531915691722    
_DMX_SCF= -3.612414426315759    
_DMY_SCF= -4.027653589175472    
_DMZ_SCF= 0.4940531915691722    
_EHOMO=-0.3056603196394664    
_ELUMO= 0.1160645499216510    
_ENERGY= -435.4657759549980    
_ENUC=  414.6182747263911    
_GRADEXFAC=  9999.000000000000    
_GRADMETHOD=  1.000000000000000    
_NMRMETHOD=  0.000000000000000    
!GRID_FREEZE= -1.000000000000000    
_ITERATIONS=  11.00000000000000    
_LASTNELEC=  64.00000000000000    
_LASTSPIN=  0.000000000000000    
_LASTSYM=  1.000000000000000    
_MPP_PROG=  0.000000000000000    
_NPROC_MPP=  1.000000000000000    
_NPROC_MPPX=  1.000000000000000    
_NPROC_SMP=  1.000000000000000    
_NUMSTEP=  0.000000000000000    
_ORBITAL=  2100.200000000000    
_PI=  3.141592653589793    
_SEIG_MIN= 0.3611254162008727E-02
_SEWPROP=TRUE
_STATUS=  1.000000000000000    
_SYSTOT= 0.1900000000000000    
_VERSION=  2012001.000000000    
_WALLTOT=  2.950000000000000    
_DATE=23-Sep-15
_LASTORB=RHF
_MACHINE=Linux-3.2.0-90-generic/sce-chem-c01105(x86_64) 64 bit serial version
_OUTPUT=/home/s1267651/phd_mini_19Sept2015/protein/molpro2/threonine_6-31g_scf.xml
_PGROUP=C1
_TIME=18:08:40
_LIBMOL=/usr/local/molpro/molprop_2012_1_Linux_x86_64_i8/lib/
!VIBCNT=  0.000000000000000    
!RGHFCNT=  0.000000000000000    
!SURFREC=  0.000000000000000    
!POLYREC=  0.000000000000000    
!DIPREC=  0.000000000000000    
!VSCFREC=  0.000000000000000    
!VCIREC=  0.000000000000000    
!PVCIREC=  0.000000000000000    
!VMP2REC=  0.000000000000000    
!VMCSCFREC=  0.000000000000000    
!VMRCIREC=  0.000000000000000    
!VIBINFO=  0.000000000000000    
!GAREC=  0.000000000000000    
!SCFORB=  21002.00000000000    
!NEWMOL= -1.000000000000000    
!NEWSYM= -1.000000000000000    
_SLFILES=slscratch
_NGSSTO=  9.000000000000000    
_SIN=SIN
_COS=COS
_TAN=TAN
_ACOS=ACOS
_ASIN=ASIN
_ATAN=ATAN
_COSH=COSH
_SINH=SINH
_TANH=TANH
_ABS=ABS
_MOD=MOD
_ERF=ERF
_REFC=REFC
_ERFC=ERFC
_HYPOT=HYPOT
_J0=J0
_J1=J1
_JN=JN
_GAMMA=GAMMA
_LGAMMA=LGAMMA
_Y0=Y0
_Y1=Y1
_YN=YN
_EXP=EXP
_LOG=LOG
_LOG10=LOG10
_SQRT=SQRT
_INT=INT
_NINT=NINT
_MAX=MAX
_MIN=MIN
_COSMO=  0.000000000000000    
_COSMOIT=  0.000000000000000    
_COSMOES=  0.000000000000000    
_COSMOEDS=  0.000000000000000    
_COSMOEC=  0.000000000000000    
_COSMOEDCORR=  0.000000000000000    
_FEPSI=  1.000000000000000    
_SL_IsMM=  0.000000000000000    
_SL_NSYM=  1.000000000000000    
_SL_System_BitSw=  0.000000000000000    
_SL_Unique_atoms=  0.000000000000000    
_SL_GRAD=  0.000000000000000    
_SL_MAXUPD_Hess=  5.000000000000000    
_SL_N_PRINT_COD=  5.000000000000000    
_SL_PRINT_CODES=  0.000000000000000    
_SL_BasType=  0.000000000000000    
_SL_Energy_Pred=  0.000000000000000    
_SL_New_Coords=  0.000000000000000    
_SL_Total_Nuclea=  0.000000000000000    
_SL_Highest_Mltp=  0.000000000000000    
_SL_Ref_Geom=  0.000000000000000    
_SL_Symmetry_ope=  1.000000000000000    
_SL_agrad=  0.000000000000000    
_SL_GrdMax=  0.000000000000000    
_SL_GrdNorm=  0.000000000000000    
_SL_GrdRMS=  0.000000000000000    
_SL_Hss_Q=  0.000000000000000    
_SL_Hss_X=  0.000000000000000    
_SL_BMxOld=  0.000000000000000    
_SL_KtB=  0.000000000000000    
!LATTICE= -1.000000000000000    
!NEWLATTICE=  0.000000000000000    
!LATGRAD_VAR=FALSE
!SEW_LATTICE=  1.000000000000000    
!LOCAL=  0.000000000000000    
!SAVEDOM= -1.000000000000000    
!RESTDOM= -1.000000000000000    
!SAVEDOM_HF= -1.000000000000000    
!RESTDOM_HF= -1.000000000000000    
!HESSREC=  0.000000000000000    
!FREQREC=  0.000000000000000    
!NMODREC=  0.000000000000000    
!GTASKS=  0.000000000000000    
!HTASKS=  0.000000000000000    
!THRCHG= 0.1000000000000000    
!DEBUG= -1.000000000000000    
!CFIT_CPHF=  0.000000000000000    
!RDOMAUX_CPHF=  3.000000000000000    
!THRAO_CPHF= 0.1000000000000000E-09
!THRMO_CPHF= 0.1000000000000000E-08
!THROV_CPHF= 0.1000000000000000E-11
!THRSW_CPHF= 0.1000000000000000E-09
!THRPROD_CPHF= 0.1000000000000000E-08
!THRAOPR_CPHF= 0.1000000000000000E-11
!CFIT_SCFGRD=  0.000000000000000    
!RDOMAUX_SCFGRD=  5.000000000000000    
!THRAO_SCFGRD= 0.1000000000000000E-09
!THRMO_SCFGRD= 0.1000000000000000E-08
!THROV_SCFGRD= 0.1000000000000000E-11
!THRSW_SCFGRD= 0.1000000000000000E-09
!THRPROD_SCFGRD= 0.1000000000000000E-08
!THRAOPR_SCFGRD= 0.1000000000000000E-11
!LOCFIT_SCF=  0.000000000000000    
!LOCFIT_MP2= -1.000000000000000    
_RIDOM=  0.000000000000000    
!CC2_METHOD=  0.000000000000000    
_BASIS2006=FALSE
_SVDDEL= -1.000000000000000    
_SVDDELA= -1.000000000000000    
_SVDDELP= -1.000000000000000    
_SVDDELF= -1.000000000000000    
_SVDDELS= -1.000000000000000    
_SVDDEL_ABS= -1.000000000000000    
_SVDDELA_ABS= -1.000000000000000    
_SVDDELP_ABS= -1.000000000000000    
_SVDDELF_ABS= -1.000000000000000    
_SVDDELS_ABS= -1.000000000000000    
_MAXBASIS=  0.000000000000000    
!OPT_CONICAL=  0.000000000000000    
!CLEARSP_JGRID=  0.000000000000000    
_4EXT_NDISKS=  1.000000000000000    
!ZMP=  0.000000000000000    
_MAXIT_ZMP=  500.0000000000000    
_MAXDIS_ZMP=  100.0000000000000    
_ACCU_ZMP=  14.00000000000000    
_SHIFTA_ZMP= -100.0000000000000    
!EMBEDFLAG=  1.000000000000000    
!EMBED=FALSE
!EMBED_F12=FALSE
!EMBEDNUC=  0.000000000000000    
_EMBEDENERGY=  0.000000000000000    
_KSPACETIME=  0.000000000000000    
_RSPACETIME=  0.000000000000000    
!EMBED_DFC=FALSE
!NUM_VOIDS=  0.000000000000000    
_IBODY=  0.000000000000000    
_EMBE_TOTAL=  0.000000000000000    
_EMBE_HF=  0.000000000000000    
_EMBE_CORR=  0.000000000000000    
!EDFT=  0.000000000000000    
_IFASTLATGRAD=  0.000000000000000    
_SINDEX=  0.000000000000000    
TITLE=THREONINE
BSET=6-31G
GX1= 0.5170000000000000    
GY1= 0.9400000000000000E-01
GZ1=-0.2490000000000000    
GX2=-0.8139999999999999    
GY2= 0.8030000000000000    
GZ2=-0.3000000000000000E-02
GX3= -1.955000000000000    
GY3=-0.2040000000000000    
GZ3=-0.1180000000000000    
GX4=-0.8139999999999999    
GY4=  1.376000000000000    
GZ4=  1.307000000000000    
GX5= 0.7020000000000000    
GY5=-0.9860000000000000    
GZ5= 0.7680000000000000    
GX6=  1.646000000000000    
GY6=  1.091000000000000    
GZ6=-0.1360000000000000    
GX7=  2.381000000000000    
GY7=  1.290000000000000    
GZ7= -1.089000000000000    
GX8=  1.830000000000000    
GY8=  1.721000000000000    
GZ8= 0.9510000000000001    
GX9= 0.5170000000000000    
GY9=-0.3420000000000000    
GZ9= -1.246000000000000    
GX10=-0.9490000000000000    
GY10=  1.589000000000001    
GZ10=-0.7430000000000000    
GX11=  1.604000000000001    
GY11= -1.466000000000000    
GZ11= 0.6010000000000002    
GX12=-0.7199999999999999E-01
GY12= -1.669000000000000    
GZ12= 0.6899999999999999    
GX13= 0.7020000000000000    
GY13=-0.5710000000000000    
GZ13=  1.716000000000000    
GX14= -2.903000000000000    
GY14= 0.3000000000000000    
GZ14= 0.5700000000000000E-01
GX15= -1.955000000000000    
GY15=-0.6410000000000000    
GZ15= -1.114000000000000    
GX16= -1.820000000000000    
GY16=-0.9900000000000000    
GZ16= 0.6220000000000000    
GX17= -1.656000000000001    
GY17=  1.828000000000000    
GZ17=  1.471000000000000    
STR=../input/THREONINE_6-31G_scf.mld
[Atoms] Angs
C     1    6         0.5170000000        0.0940000000       -0.2490000000
C     2    6        -0.8140000000        0.8030000000       -0.0030000000
C     3    6        -1.9550000000       -0.2040000000       -0.1180000000
O     4    8        -0.8140000000        1.3760000000        1.3070000000
N     5    7         0.7020000000       -0.9860000000        0.7680000000
C     6    6         1.6460000000        1.0910000000       -0.1360000000
O     7    8         2.3810000000        1.2900000000       -1.0890000000
O     8    8         1.8300000000        1.7210000000        0.9510000000
H     9    1         0.5170000000       -0.3420000000       -1.2460000000
H    10    1        -0.9490000000        1.5890000000       -0.7430000000
H    11    1         1.6040000000       -1.4660000000        0.6010000000
H    12    1        -0.0720000000       -1.6690000000        0.6900000000
H    13    1         0.7020000000       -0.5710000000        1.7160000000
H    14    1        -2.9030000000        0.3000000000        0.0570000000
H    15    1        -1.9550000000       -0.6410000000       -1.1140000000
H    16    1        -1.8200000000       -0.9900000000        0.6220000000
H    17    1        -1.6560000000        1.8280000000        1.4710000000
[GTO]
  1 0
 s    6  1.00
  0.3047524900D+04  0.1834737091D-02
  0.4573695200D+03  0.1403732293D-01
  0.1039486800D+03  0.6884262165D-01
  0.2921015500D+02  0.2321844388D+00
  0.9286663000D+01  0.4679413476D+00
  0.3163927000D+01  0.3623119882D+00
 s    3  1.00
  0.7868272300D+01 -0.1193324245D+00
  0.1881288500D+01 -0.1608541561D+00
  0.5442492600D+00  0.1143456443D+01
 s    1  1.00
  0.1687144800D+00  0.1000000000D+01
 p    3  1.00
  0.7868272300D+01  0.6899906693D-01
  0.1881288500D+01  0.3164239597D+00
  0.5442492600D+00  0.7443082892D+00
 p    1  1.00
  0.1687144800D+00  0.1000000000D+01
  
  2 0
 s    6  1.00
  0.3047524900D+04  0.1834737091D-02
  0.4573695200D+03  0.1403732293D-01
  0.1039486800D+03  0.6884262165D-01
  0.2921015500D+02  0.2321844388D+00
  0.9286663000D+01  0.4679413476D+00
  0.3163927000D+01  0.3623119882D+00
 s    3  1.00
  0.7868272300D+01 -0.1193324245D+00
  0.1881288500D+01 -0.1608541561D+00
  0.5442492600D+00  0.1143456443D+01
 s    1  1.00
  0.1687144800D+00  0.1000000000D+01
 p    3  1.00
  0.7868272300D+01  0.6899906693D-01
  0.1881288500D+01  0.3164239597D+00
  0.5442492600D+00  0.7443082892D+00
 p    1  1.00
  0.1687144800D+00  0.1000000000D+01
  
  3 0
 s    6  1.00
  0.3047524900D+04  0.1834737091D-02
  0.4573695200D+03  0.1403732293D-01
  0.1039486800D+03  0.6884262165D-01
  0.2921015500D+02  0.2321844388D+00
  0.9286663000D+01  0.4679413476D+00
  0.3163927000D+01  0.3623119882D+00
 s    3  1.00
  0.7868272300D+01 -0.1193324245D+00
  0.1881288500D+01 -0.1608541561D+00
  0.5442492600D+00  0.1143456443D+01
 s    1  1.00
  0.1687144800D+00  0.1000000000D+01
 p    3  1.00
  0.7868272300D+01  0.6899906693D-01
  0.1881288500D+01  0.3164239597D+00
  0.5442492600D+00  0.7443082892D+00
 p    1  1.00
  0.1687144800D+00  0.1000000000D+01
  
  4 0
 s    6  1.00
  0.5484671700D+04  0.1831074396D-02
  0.8252349500D+03  0.1395017197D-01
  0.1880469600D+03  0.6844507786D-01
  0.5296450000D+02  0.2327143395D+00
  0.1689757000D+02  0.4701928990D+00
  0.5799635300D+01  0.3585208493D+00
 s    3  1.00
  0.1553961600D+02 -0.1107775519D+00
  0.3599933600D+01 -0.1480262626D+00
  0.1013761800D+01  0.1130767020D+01
 s    1  1.00
  0.2700058200D+00  0.1000000000D+01
 p    3  1.00
  0.1553961600D+02  0.7087426737D-01
  0.3599933600D+01  0.3397528370D+00
  0.1013761800D+01  0.7271585736D+00
 p    1  1.00
  0.2700058200D+00  0.1000000000D+01
  
  5 0
 s    6  1.00
  0.4173511500D+04  0.1834772199D-02
  0.6274579100D+03  0.1399462699D-01
  0.1429020900D+03  0.6858655195D-01
  0.4023432900D+02  0.2322408698D+00
  0.1282021300D+02  0.4690699496D+00
  0.4390437000D+01  0.3604551997D+00
 s    3  1.00
  0.1162636200D+02 -0.1149611854D+00
  0.2716279800D+01 -0.1691174879D+00
  0.7722184000D+00  0.1145851954D+01
 s    1  1.00
  0.2120315000D+00  0.1000000000D+01
 p    3  1.00
  0.1162636200D+02  0.6757974372D-01
  0.2716279800D+01  0.3239072986D+00
  0.7722184000D+00  0.7408951369D+00
 p    1  1.00
  0.2120315000D+00  0.1000000000D+01
  
  6 0
 s    6  1.00
  0.3047524900D+04  0.1834737091D-02
  0.4573695200D+03  0.1403732293D-01
  0.1039486800D+03  0.6884262165D-01
  0.2921015500D+02  0.2321844388D+00
  0.9286663000D+01  0.4679413476D+00
  0.3163927000D+01  0.3623119882D+00
 s    3  1.00
  0.7868272300D+01 -0.1193324245D+00
  0.1881288500D+01 -0.1608541561D+00
  0.5442492600D+00  0.1143456443D+01
 s    1  1.00
  0.1687144800D+00  0.1000000000D+01
 p    3  1.00
  0.7868272300D+01  0.6899906693D-01
  0.1881288500D+01  0.3164239597D+00
  0.5442492600D+00  0.7443082892D+00
 p    1  1.00
  0.1687144800D+00  0.1000000000D+01
  
  7 0
 s    6  1.00
  0.5484671700D+04  0.1831074396D-02
  0.8252349500D+03  0.1395017197D-01
  0.1880469600D+03  0.6844507786D-01
  0.5296450000D+02  0.2327143395D+00
  0.1689757000D+02  0.4701928990D+00
  0.5799635300D+01  0.3585208493D+00
 s    3  1.00
  0.1553961600D+02 -0.1107775519D+00
  0.3599933600D+01 -0.1480262626D+00
  0.1013761800D+01  0.1130767020D+01
 s    1  1.00
  0.2700058200D+00  0.1000000000D+01
 p    3  1.00
  0.1553961600D+02  0.7087426737D-01
  0.3599933600D+01  0.3397528370D+00
  0.1013761800D+01  0.7271585736D+00
 p    1  1.00
  0.2700058200D+00  0.1000000000D+01
  
  8 0
 s    6  1.00
  0.5484671700D+04  0.1831074396D-02
  0.8252349500D+03  0.1395017197D-01
  0.1880469600D+03  0.6844507786D-01
  0.5296450000D+02  0.2327143395D+00
  0.1689757000D+02  0.4701928990D+00
  0.5799635300D+01  0.3585208493D+00
 s    3  1.00
  0.1553961600D+02 -0.1107775519D+00
  0.3599933600D+01 -0.1480262626D+00
  0.1013761800D+01  0.1130767020D+01
 s    1  1.00
  0.2700058200D+00  0.1000000000D+01
 p    3  1.00
  0.1553961600D+02  0.7087426737D-01
  0.3599933600D+01  0.3397528370D+00
  0.1013761800D+01  0.7271585736D+00
 p    1  1.00
  0.2700058200D+00  0.1000000000D+01
  
  9 0
 s    3  1.00
  0.1873113700D+02  0.3349460400D-01
  0.2825394400D+01  0.2347269500D+00
  0.6401216900D+00  0.8137573301D+00
 s    1  1.00
  0.1612777600D+00  0.1000000000D+01
  
 10 0
 s    3  1.00
  0.1873113700D+02  0.3349460400D-01
  0.2825394400D+01  0.2347269500D+00
  0.6401216900D+00  0.8137573301D+00
 s    1  1.00
  0.1612777600D+00  0.1000000000D+01
  
 11 0
 s    3  1.00
  0.1873113700D+02  0.3349460400D-01
  0.2825394400D+01  0.2347269500D+00
  0.6401216900D+00  0.8137573301D+00
 s    1  1.00
  0.1612777600D+00  0.1000000000D+01
  
 12 0
 s    3  1.00
  0.1873113700D+02  0.3349460400D-01
  0.2825394400D+01  0.2347269500D+00
  0.6401216900D+00  0.8137573301D+00
 s    1  1.00
  0.1612777600D+00  0.1000000000D+01
  
 13 0
 s    3  1.00
  0.1873113700D+02  0.3349460400D-01
  0.2825394400D+01  0.2347269500D+00
  0.6401216900D+00  0.8137573301D+00
 s    1  1.00
  0.1612777600D+00  0.1000000000D+01
  
 14 0
 s    3  1.00
  0.1873113700D+02  0.3349460400D-01
  0.2825394400D+01  0.2347269500D+00
  0.6401216900D+00  0.8137573301D+00
 s    1  1.00
  0.1612777600D+00  0.1000000000D+01
  
 15 0
 s    3  1.00
  0.1873113700D+02  0.3349460400D-01
  0.2825394400D+01  0.2347269500D+00
  0.6401216900D+00  0.8137573301D+00
 s    1  1.00
  0.1612777600D+00  0.1000000000D+01
  
 16 0
 s    3  1.00
  0.1873113700D+02  0.3349460400D-01
  0.2825394400D+01  0.2347269500D+00
  0.6401216900D+00  0.8137573301D+00
 s    1  1.00
  0.1612777600D+00  0.1000000000D+01
  
 17 0
 s    3  1.00
  0.1873113700D+02  0.3349460400D-01
  0.2825394400D+01  0.2347269500D+00
  0.6401216900D+00  0.8137573301D+00
 s    1  1.00
  0.1612777600D+00  0.1000000000D+01
 
 
[MO]
 Sym=      1.1
 Ene=     -20.5814
 Spin= Alpha
 Occup=    2.000000
1 0.000013063016471
2 -0.000023413409941
3 -0.000836912813797
4 0.000191210199270
5 -0.000133887873796
6 0.000005778362101
7 0.000137600238628
8 0.000072761199373
9 -0.001342161565277
10 -0.000070516870812
11 -0.000888918275229
12 0.006010816273939
13 -0.000078325338226
14 0.000245742478919
15 0.000212271352333
16 0.000078691700972
17 0.000648379956915
18 0.003253624905590
19 -0.000007208250254
20 -0.000335638013950
21 -0.000391841737771
22 -0.000148823084280
23 -0.000210541497814
24 -0.000179034457352
25 -0.000313218159672
26 0.000009367363168
27 -0.000085000216470
28 0.99583325623285
29 0.022794568479975
30 -0.011197760585734
31 -0.001549920405694
32 -0.000100269600442
33 -0.001418893196554
34 0.001469542834091
35 0.000733030014023
36 0.002823218195770
37 0.000005803626450
38 0.000095280171066
39 0.000260249430856
40 -0.000048683706088
41 0.000023043874998
42 -0.000009448652528
43 0.000332682883810
44 0.000136473649921
45 -0.000198871014905
46 0.000016077973321
47 0.000137301846419
48 -0.000482148893085
49 -0.000040343513338
50 -0.000042003325833
51 -0.000034467158401
52 0.000124175429749
53 -0.000009191372472
54 0.000914500808706
55 -0.000037778052519
56 -0.000143124991870
57 0.000697919455329
58 0.000024774885172
59 -0.000012905762148
60 -0.000005303945764
61 -0.000269430838242
62 0.000009655352976
63 0.000091748907931
64 -0.000009022079599
65 0.000043834353390
66 -0.000387182977518
67 0.000057419875978
68 -0.000008301212353
69 -0.000007668374581
70 -0.000099424345014
71 0.000117598100903
72 0.000040467200507
73 -0.000130431230370
74 -0.000127403496157
75 -0.000314193542288
76 -0.000036921705665
77 -0.000044161136277
78 -0.000163372271167
79 0.000095656523253
80 0.000099994805419
81 -0.000038352796681
82 0.000214796193560
83 0.000020856429028
84 -0.000445097966518
85 -0.000035438035806
86 0.000338477240229
87 -0.000029617021835
88 -0.000020337362352
89 0.000393474011657
90 0.001538291426963
 Sym=      2.1
 Ene=     -20.4432
 Spin= Alpha
 Occup=    2.000000
1 -0.000055538754428
2 -0.000652884633593
3 0.003086472866634
4 -0.000049127602189
5 -0.000074803957071
6 -0.000118378325541
7 -0.000850657664098
8 0.000911740310068
9 0.003336879847631
10 0.000024940623850
11 0.000138452626245
12 -0.002118132667757
13 -0.000078155228848
14 -0.000014877337085
15 -0.000043761862516
16 -0.000429813330893
17 0.001048813717148
18 -0.000774523931827
19 -0.000012969454690
20 -0.000083167099161
21 0.000798450180201
22 0.000043437228252
23 0.000019911026012
24 0.000015221237477
25 0.000281283872735
26 0.000182684777702
27 0.000217528363185
28 0.000021621474424
29 -0.000169181629402
30 0.000670244214309
31 -0.000050560034029
32 -0.000014900863911
33 0.000029395823263
34 0.000181825391628
35 -0.000106432910973
36 -0.000287342717343
37 0.000007074975793
38 0.000027888676105
39 -0.001087755134507
40 -0.000041166931705
41 -0.000036366629722
42 0.000023638000705
43 0.000695789030205
44 -0.000547357109969
45 0.000068831411560
46 0.000158298134719
47 0.000230427284462
48 0.005592255037181
49 -0.000032548625196
50 -0.000020568542316
51 0.000011134592900
52 0.004950298882782
53 0.001079683651803
54 -0.007038230956339
55 0.99586374276531
56 0.023434068815397
57 -0.015363949669800
58 -0.001496117495451
59 -0.000514121924261
60 0.001710786449209
61 0.003035694485310
62 0.000884586693380
63 -0.003769049504749
64 -0.002252886930900
65 -0.000532391428913
66 0.001979859705249
67 0.000056912339009
68 0.000089797184368
69 0.000086938355877
70 -0.001020725994405
71 -0.000858178911469
72 0.000004618021254
73 0.000133877400407
74 0.001090775274657
75 0.000055800947579
76 -0.000608591439396
77 -0.000011290854468
78 -0.000479239895726
79 0.000097123834438
80 0.000117647810570
81 0.000009571492446
82 0.000299161528448
83 -0.000033380831073
84 -0.000078793214024
85 -0.000020873402396
86 0.000062725805937
87 -0.000054612847555
88 -0.000054910502060
89 -0.000005181871707
90 0.000042454617547
 Sym=      3.1
 Ene=     -20.4264
 Spin= Alpha
 Occup=    2.000000
1 -0.000064433183313
2 -0.000706447818640
3 0.003721830990414
4 -0.000250438855719
5 -0.000225331827447
6 0.000034557652398
7 0.002293693570711
8 0.001372908173590
9 -0.002257092567051
10 0.000028780042464
11 0.000223907011519
12 -0.000265666681497
13 0.000083230026869
14 0.000070012956739
15 -0.000075094638407
16 -0.001038757613686
17 -0.001213038236083
18 0.000934437693408
19 -0.000002750085895
20 -0.000069856193201
21 -0.000615767888401
22 -0.000081200693333
23 -0.000001802526681
24 -0.000009194644471
25 0.000117780271824
26 -0.000488741516936
27 -0.000346441293311
28 0.000020566467587
29 0.000024509392341
30 -0.000197245572730
31 -0.000071193805302
32 -0.000029845063451
33 0.000002931931376
34 0.000229420362313
35 0.000185774164421
36 -0.000046413213136
37 0.000016487329355
38 0.000199077318369
39 -0.000002259758233
40 0.000068750460810
41 0.000057134506934
42 -0.000008194724386
43 -0.000932434483650
44 -0.000263668784759
45 -0.000021473175616
46 0.000115072306644
47 -0.000031164671142
48 0.004040829355677
49 0.000096703591659
50 0.000081288421656
51 0.000047074715081
52 0.001353875980195
53 0.004556429338947
54 0.007637134990019
55 0.002219563965454
56 -0.000434677684632
57 0.002020316178258
58 0.000093386030560
59 0.000070724853810
60 -0.000036851353100
61 -0.001022047402251
62 -0.001064156448935
63 -0.000377728034109
64 0.99588995640941
65 0.023259013058240
66 -0.014912977843867
67 -0.000428502987586
68 -0.001245098653222
69 -0.001825563705463
70 0.000795748487185
71 0.002517647244668
72 0.004194377657558
73 -0.000425529860880
74 -0.000503601608508
75 0.000231332984801
76 0.000648624282015
77 0.000209316925367
78 0.000173926666926
79 -0.000096269740859
80 -0.000289985404175
81 0.000024792990272
82 0.000107863854187
83 0.000065982925747
84 0.000231036596170
85 -0.000041962151487
86 -0.000180362283662
87 -0.000004475453954
88 -0.000021504529893
89 0.000045916786101
90 0.000019854305771
 Sym=      4.1
 Ene=     -15.7489
 Spin= Alpha
 Occup=    2.000000
1 0.000003768819520
2 -0.000475064500812
3 0.003255422587246
4 0.000072688036516
5 -0.000207281481342
6 0.000090891695952
7 0.000374828270883
8 -0.001945341542471
9 0.001311641349488
10 -0.000042904989183
11 -0.000501641679074
12 0.001134335443204
13 -0.000115554762348
14 0.000255983711243
15 -0.000062642566480
16 0.000076429704485
17 -0.001040745703966
18 0.000410322913119
19 0.000016596054193
20 0.000040645146663
21 -0.000675175934565
22 -0.000070147232675
23 -0.000025793998924
24 -0.000075778420380
25 -0.000601943470245
26 -0.000077772309690
27 0.000179549852088
28 0.000008492984001
29 0.000121926969715
30 -0.000457481139002
31 0.000023916151793
32 -0.000010215014794
33 0.000006780780499
34 -0.000196499029141
35 0.000325907086283
36 0.000083840828331
37 0.99605217727022
38 0.024444035466728
39 -0.014504702978291
40 -0.000049179870681
41 -0.000153498949530
42 -0.000030922268523
43 0.000318005987182
44 -0.000856365036234
45 0.000899968784076
46 -0.000025296078916
47 -0.000355079204995
48 0.000628334751768
49 0.000137333002444
50 0.000149381251370
51 -0.000027190885402
52 -0.000604187086632
53 -0.000092157146400
54 0.000459426277005
55 -0.000003972771237
56 -0.000041713733146
57 0.000349684827688
58 0.000004499389260
59 -0.000038227038960
60 0.000014660885871
61 -0.000058444047965
62 0.000088070546818
63 0.000012515706098
64 0.000008603072412
65 0.000152927428381
66 -0.000608040384524
67 -0.000033762977073
68 -0.000001967752468
69 0.000004116022194
70 0.000268370107755
71 0.000213398509393
72 0.000060941928388
73 -0.000227178524331
74 -0.000197697672252
75 0.000005445961230
76 0.000658033236369
77 0.000339930110601
78 0.001776859015412
79 0.000280292247064
80 0.002246355348749
81 0.000329009911698
82 0.001917908051403
83 -0.000026398636305
84 -0.000148318231093
85 0.000104032692281
86 0.000028532179066
87 0.000055465791504
88 -0.000376659240275
89 -0.000032486903609
90 -0.000076667144170
 Sym=      5.1
 Ene=     -11.3331
 Spin= Alpha
 Occup=    2.000000
1 0.026211129776603
2 0.000409306874782
3 0.003782215558323
4 -0.000202650873863
5 0.000024287046461
6 0.000054859683458
7 -0.002369614675899
8 0.001056032477592
9 -0.000112889330986
10 0.99604219653111
11 0.026536690428709
12 -0.021512856663526
13 0.000157998005544
14 -0.000226595912433
15 0.000561416112301
16 -0.000282161694849
17 0.002453124342285
18 -0.000546983905406
19 0.004750443273194
20 -0.000462722284351
21 0.005846405571781
22 0.000127361431176
23 0.000013988299807
24 -0.000008461630772
25 0.002313991846050
26 0.001844001006222
27 0.000645671937740
28 -0.000089629899310
29 -0.000242873459849
30 0.002801869488230
31 -0.000061309320340
32 0.000027991577942
33 -0.000048559902627
34 0.000349321487575
35 -0.000822723676719
36 -0.000797630823466
37 -0.000030506641965
38 -0.000435743041358
39 0.000931993368746
40 0.000205258617723
41 -0.000135963203114
42 0.000015441935927
43 -0.001209050227681
44 0.000630812456964
45 0.000090272261499
46 0.000042922036776
47 -0.000400744539900
48 0.001023356065239
49 0.000099093913688
50 0.000048222581667
51 -0.000021176770613
52 -0.000584978140062
53 -0.000148070721408
54 0.000729261691140
55 -0.000004066031943
56 -0.000036490585834
57 0.000366444648989
58 -0.000040516205445
59 0.000016494357960
60 -0.000004434113420
61 0.000089046960357
62 -0.000105261922303
63 0.000077004307494
64 0.000006578644411
65 0.000053865576132
66 -0.000581667995776
67 0.000052982590076
68 -0.000018839275308
69 0.000023187379029
70 0.000020394050086
71 0.000218277572179
72 0.000070416955949
73 -0.000156181482909
74 0.000026577429012
75 0.000261205398126
76 0.002764028103926
77 0.000168354770492
78 0.000775078227709
79 -0.000226353429758
80 -0.000506120528881
81 -0.000253412727421
82 -0.000039729627145
83 -0.000183777835587
84 -0.000074467823363
85 -0.000164220956023
86 0.000202181400399
87 -0.000263486039124
88 0.000039483720125
89 0.000086440767296
90 0.000501852529727
 Sym=      6.1
 Ene=     -11.3216
 Spin= Alpha
 Occup=    2.000000
1 0.99593322927128
2 0.027393024369202
3 -0.025165505360911
4 -0.000332217864053
5 -0.000772035764945
6 0.000879193441548
7 0.000456862546559
8 -0.000925625380174
9 -0.003002487905818
10 -0.026376969349835
11 -0.001160720011703
12 0.006384935872634
13 0.000248774994960
14 -0.000010188534927
15 -0.000076903515412
16 0.002375885909143
17 -0.001647494042171
18 0.000271157734071
19 -0.000400394289863
20 -0.000459597734645
21 0.000462664885235
22 -0.000172772148981
23 -0.000005238858075
24 0.000037222627992
25 0.000481154389988
26 -0.000570932666333
27 -0.000428477237291
28 0.000008780966991
29 -0.000082886501610
30 -0.000600663624746
31 -0.000136298548578
32 0.000121750110852
33 0.000089095278041
34 0.000636389463557
35 -0.000352908672365
36 -0.000116118970022
37 -0.000106111827489
38 -0.000217437886165
39 0.004264000943504
40 -0.000002905351923
41 -0.000005321479783
42 0.000055599605194
43 -0.000423846678119
44 0.001914984864968
45 -0.001459545058665
46 0.015992455168308
47 -0.000205023400230
48 0.005387731021759
49 -0.000156330450847
50 -0.000087666183755
51 0.000012569945955
52 -0.003229434956273
53 -0.002609867563396
54 0.000795106543464
55 -0.000016902685925
56 -0.000327352805990
57 0.001138091098080
58 0.000019404962087
59 -0.000008239602570
60 -0.000041497015420
61 0.000035197532337
62 0.000317834417325
63 0.000465470627050
64 -0.000006972731688
65 -0.000232336276798
66 0.000104776628633
67 0.000024780487078
68 0.000071229185370
69 0.000056213295137
70 0.000258520295757
71 0.000081500745910
72 -0.000222894670940
73 0.000268454163178
74 0.002893975756752
75 -0.000091874254396
76 0.000096775351541
77 -0.000026252000095
78 0.000361672782882
79 -0.000071997845902
80 0.000407074374296
81 -0.000029867132756
82 0.000334406664045
83 0.000049418587117
84 0.000535864775294
85 -0.000123828928110
86 -0.000560499908719
87 -0.000056936762231
88 -0.000421520077427
89 0.000281340251697
90 0.000450374046678
 Sym=      7.1
 Ene=     -11.3024
 Spin= Alpha
 Occup=    2.000000
1 0.016165774398703
2 0.000719077069870
3 -0.004735281394147
4 0.000076516569458
5 -0.000004614913675
6 0.000019146808838
7 -0.002684029054660
8 -0.001941318074900
9 0.000258154358453
10 -0.000297305078227
11 0.000398380577171
12 -0.000305205258811