[Molden Format]
[Molpro variables]
_NUMVAR=  859.0000000000000    
_AVOGAD= 0.6022136736000000E+24
_BOLTZ= 0.1380658000000000E-22
_CLIGHT=  29979245800.00000    
_EV2006= 0.3674930886769165E-01
_EV= 0.3674932534394180E-01
_ENULL= 0.8854187817000000E-11
_KJOULE= 0.3808798324128737E-03
_KJOULE/MOL= 0.3808798324128737E-03
_CM= 0.4556335267302901E-05
_CM-1= 0.4556335267302901E-05
_DEB2SI= 0.3335641000000000E-29
_AMU2AU=  1822.888390000000    
_KCAL= 0.1593601117815568E-02
_KCAL/MOL= 0.1593601117815568E-02
_KELVIN2006= 0.3166828861084835E-05
_KELVIN= 0.3166814820820034E-05
_JOULE= 0.4359748200000000E-17
_HERTZ2006= 0.1519829850815779E-15
_HERTZ= 0.1519829846011223E-15
_HZ2006= 0.1519829850815779E-15
_HZ= 0.1519829846011223E-15
_JPCAL=  4.184000000000000    
_PLANCK= 0.6626075540000000E-33
_TOA2006= 0.5291772490000000    
_TOA= 0.5291772090000000    
_TOANG2006= 0.5291772490000000    
_TOANG= 0.5291772090000000    
_TORAD= 0.1745329251994330E-01
_TOCM=  219474.6306700000    
_TODEBYE=  2.541580000000000    
_TOEV2006=  27.21139610000000    
_TOE= 0.4803242000000000E-09
_TOEV=  27.21138390000000    
_TOHERTZ2006=  6579683899900000.    
_TOHERTZ=  6579683920700000.    
_TOHZ2006=  6579683899900000.    
_TOHZ=  6579683920700000.    
_TOK2006=  315773.3000000000    
_TOK=  315774.7000000000    
_TOKCAL=  627.5096000000000    
_TOKELVIN2006=  315773.3000000000    
_TOKELVIN=  315774.7000000000    
_TOKJ=  2625.500000000000    
_TOKJOULE=  2625.500000000000    
_TOKG= 0.1660565586000000E-26
_ANG2006=  1.889725988578923    
_ANG=  1.889726131421507    
_ANGSTROM2006=  1.889725988578923    
_ANGSTROM=  1.889726131421507    
_RPAREF=  0.000000000000000    
_RPADISS=  0.000000000000000    
_IGNORE_UNDEF=  2.000000000000000    
_STRICTCHECK=  0.000000000000000    
_SEW_ONEEL=  0.000000000000000    
_CPPDONE=FALSE
_DKROLL_DONE=  0.000000000000000    
_FOCKDONE=TRUE
_GRADONE=FALSE
_HESSDONE=FALSE
_INTDONE=TRUE
_SCFDONE=TRUE
_MODUL_BLOCK=FALSE
_MODUL_CUDA=FALSE
_MODUL_SLATER=FALSE
_MODUL_MRCC=FALSE
_MODUL_NBO6=FALSE
_MODUL_NECI=TRUE
_MODUL_AIMS=TRUE
_MRCC_EXEC=
_FITC_AO_SAVED=FALSE
_FITC_MO_SAVED=FALSE
_SHARED_FS=TRUE
_LSTYP=SEWARD
_INTYP=INTS
_GEOMTYP=ZMAT
_GRADTYP=ALASKA
_DIRECT=FALSE
_DKHO= -1.000000000000000    
_SYNCM=  0.000000000000000    
_BASIS=$BSET
_ZORIENT=  1.000000000000000    
_NELEC=  108.0000000000000    
!SPIN=  0.000000000000000    
_QSDSTEP=  0.000000000000000    
_QSDIRC=  0.000000000000000    
_PROGRAM=HF-SCF
_CPUSTEP=  6.989999999999998    
_SYSSTEP= 0.2200000000000000    
_WALLSTEP=  7.200000000000000    
!DFSCF=  0.000000000000000    
!SCSGRD=  0.000000000000000    
_BASINP=  610.0000000000000    
_CPUTOT=  17.83000000000000    
_CPUSORT=  1.870000000000001    
_SYSSORT= 0.6700000000000000    
_WALLSORT=  5.459999997168779    
_DFTEXFAC=  1.000000000000000    
_DMX= -3.971257355977215    
_DMY=  1.041249388428255    
_DMZ= -3.823583068801398    
_DMX_SCF= -3.971257355977215    
_DMY_SCF=  1.041249388428255    
_DMZ_SCF= -3.823583068801398    
_EHOMO=-0.3026857622480968    
_ELUMO= 0.9045135731363650E-01
_ENERGY= -681.8235951225247    
_ENUC=  954.3836855516028    
_GRADEXFAC=  9999.000000000000    
_GRADMETHOD=  1.000000000000000    
_NMRMETHOD=  0.000000000000000    
!GRID_FREEZE= -1.000000000000000    
_ITERATIONS=  11.00000000000000    
_LASTNELEC=  108.0000000000000    
_LASTSPIN=  0.000000000000000    
_LASTSYM=  1.000000000000000    
_MPP_PROG=  0.000000000000000    
_NPROC_MPP=  1.000000000000000    
_NPROC_MPPX=  1.000000000000000    
_NPROC_SMP=  1.000000000000000    
_NUMSTEP=  0.000000000000000    
_ORBITAL=  2100.200000000000    
_PI=  3.141592653589793    
_SEIG_MIN= 0.4681138555970481E-03
_SEWPROP=TRUE
_STATUS=  1.000000000000000    
_SYSTOT= 0.9800000000000000    
_VERSION=  2012001.000000000    
_WALLTOT=  21.73000000000000    
_DATE=20-Aug-15
_LASTORB=RHF
_MACHINE=Linux-3.2.0-89-generic/sce-chem-c01105(x86_64) 64 bit serial version
_OUTPUT=/home/s1267651/phd_mini_19Aug2015/protein/molpro2/tryptophan_6-31g_dft.xml
_PGROUP=C1
_TIME=17:33:19
_LIBMOL=/usr/local/molpro/molprop_2012_1_Linux_x86_64_i8/lib/
!VIBCNT=  0.000000000000000    
!RGHFCNT=  0.000000000000000    
!SURFREC=  0.000000000000000    
!POLYREC=  0.000000000000000    
!DIPREC=  0.000000000000000    
!VSCFREC=  0.000000000000000    
!VCIREC=  0.000000000000000    
!PVCIREC=  0.000000000000000    
!VMP2REC=  0.000000000000000    
!VMCSCFREC=  0.000000000000000    
!VMRCIREC=  0.000000000000000    
!VIBINFO=  0.000000000000000    
!GAREC=  0.000000000000000    
!SCFORB=  21002.00000000000    
!NEWMOL= -1.000000000000000    
!NEWSYM= -1.000000000000000    
_SLFILES=slscratch
_NGSSTO=  9.000000000000000    
_SIN=SIN
_COS=COS
_TAN=TAN
_ACOS=ACOS
_ASIN=ASIN
_ATAN=ATAN
_COSH=COSH
_SINH=SINH
_TANH=TANH
_ABS=ABS
_MOD=MOD
_ERF=ERF
_REFC=REFC
_ERFC=ERFC
_HYPOT=HYPOT
_J0=J0
_J1=J1
_JN=JN
_GAMMA=GAMMA
_LGAMMA=LGAMMA
_Y0=Y0
_Y1=Y1
_YN=YN
_EXP=EXP
_LOG=LOG
_LOG10=LOG10
_SQRT=SQRT
_INT=INT
_NINT=NINT
_MAX=MAX
_MIN=MIN
_COSMO=  0.000000000000000    
_COSMOIT=  0.000000000000000    
_COSMOES=  0.000000000000000    
_COSMOEDS=  0.000000000000000    
_COSMOEC=  0.000000000000000    
_COSMOEDCORR=  0.000000000000000    
_FEPSI=  1.000000000000000    
_SL_IsMM=  0.000000000000000    
_SL_NSYM=  1.000000000000000    
_SL_System_BitSw=  0.000000000000000    
_SL_Unique_atoms=  0.000000000000000    
_SL_GRAD=  0.000000000000000    
_SL_MAXUPD_Hess=  5.000000000000000    
_SL_N_PRINT_COD=  5.000000000000000    
_SL_PRINT_CODES=  0.000000000000000    
_SL_BasType=  0.000000000000000    
_SL_Energy_Pred=  0.000000000000000    
_SL_New_Coords=  0.000000000000000    
_SL_Total_Nuclea=  0.000000000000000    
_SL_Highest_Mltp=  0.000000000000000    
_SL_Ref_Geom=  0.000000000000000    
_SL_Symmetry_ope=  1.000000000000000    
_SL_agrad=  0.000000000000000    
_SL_GrdMax=  0.000000000000000    
_SL_GrdNorm=  0.000000000000000    
_SL_GrdRMS=  0.000000000000000    
_SL_Hss_Q=  0.000000000000000    
_SL_Hss_X=  0.000000000000000    
_SL_BMxOld=  0.000000000000000    
_SL_KtB=  0.000000000000000    
!LATTICE= -1.000000000000000    
!NEWLATTICE=  0.000000000000000    
!LATGRAD_VAR=FALSE
!SEW_LATTICE=  1.000000000000000    
!LOCAL=  0.000000000000000    
!SAVEDOM= -1.000000000000000    
!RESTDOM= -1.000000000000000    
!SAVEDOM_HF= -1.000000000000000    
!RESTDOM_HF= -1.000000000000000    
!HESSREC=  0.000000000000000    
!FREQREC=  0.000000000000000    
!NMODREC=  0.000000000000000    
!GTASKS=  0.000000000000000    
!HTASKS=  0.000000000000000    
!THRCHG= 0.1000000000000000    
!DEBUG= -1.000000000000000    
!CFIT_CPHF=  0.000000000000000    
!RDOMAUX_CPHF=  3.000000000000000    
!THRAO_CPHF= 0.1000000000000000E-09
!THRMO_CPHF= 0.1000000000000000E-08
!THROV_CPHF= 0.1000000000000000E-11
!THRSW_CPHF= 0.1000000000000000E-09
!THRPROD_CPHF= 0.1000000000000000E-08
!THRAOPR_CPHF= 0.1000000000000000E-11
!CFIT_SCFGRD=  0.000000000000000    
!RDOMAUX_SCFGRD=  5.000000000000000    
!THRAO_SCFGRD= 0.1000000000000000E-09
!THRMO_SCFGRD= 0.1000000000000000E-08
!THROV_SCFGRD= 0.1000000000000000E-11
!THRSW_SCFGRD= 0.1000000000000000E-09
!THRPROD_SCFGRD= 0.1000000000000000E-08
!THRAOPR_SCFGRD= 0.1000000000000000E-11
!LOCFIT_SCF=  0.000000000000000    
!LOCFIT_MP2= -1.000000000000000    
_RIDOM=  0.000000000000000    
!CC2_METHOD=  0.000000000000000    
_BASIS2006=FALSE
_SVDDEL= -1.000000000000000    
_SVDDELA= -1.000000000000000    
_SVDDELP= -1.000000000000000    
_SVDDELF= -1.000000000000000    
_SVDDELS= -1.000000000000000    
_SVDDEL_ABS= -1.000000000000000    
_SVDDELA_ABS= -1.000000000000000    
_SVDDELP_ABS= -1.000000000000000    
_SVDDELF_ABS= -1.000000000000000    
_SVDDELS_ABS= -1.000000000000000    
_MAXBASIS=  0.000000000000000    
!OPT_CONICAL=  0.000000000000000    
!CLEARSP_JGRID=  0.000000000000000    
_4EXT_NDISKS=  1.000000000000000    
!ZMP=  0.000000000000000    
_MAXIT_ZMP=  500.0000000000000    
_MAXDIS_ZMP=  100.0000000000000    
_ACCU_ZMP=  14.00000000000000    
_SHIFTA_ZMP= -100.0000000000000    
!EMBEDFLAG=  1.000000000000000    
!EMBED=FALSE
!EMBED_F12=FALSE
!EMBEDNUC=  0.000000000000000    
_EMBEDENERGY=  0.000000000000000    
_KSPACETIME=  0.000000000000000    
_RSPACETIME=  0.000000000000000    
!EMBED_DFC=FALSE
!NUM_VOIDS=  0.000000000000000    
_IBODY=  0.000000000000000    
_EMBE_TOTAL=  0.000000000000000    
_EMBE_HF=  0.000000000000000    
_EMBE_CORR=  0.000000000000000    
!EDFT=  0.000000000000000    
_IFASTLATGRAD=  0.000000000000000    
_SINDEX=  0.000000000000000    
BSET=6-31G
GX1=  2.134000000000000    
GY1= -1.375000000000000    
GZ1= 0.5020000000000000    
GX2=  1.280000000000000    
GY2=-0.3710000000000000    
GZ2=  1.275000000000000    
GX3= 0.3310000000000000    
GY3= 0.3190000000000000    
GZ3= 0.3240000000000000    
GX4= -1.048000000000000    
GY4= 0.9800000000000000E-01
GZ4= 0.2270000000000000    
GX5= -1.543000000000000    
GY5= 0.9399999999999999    
GZ5=-0.7760000000000001    
GX6=-0.4830000000000000    
GY6=  1.668000000000000    
GZ6= -1.287000000000000    
GX7= 0.6700000000000000    
GY7=  1.295000000000000    
GZ7=-0.6210000000000000    
GX8= -2.907000000000000    
GY8= 0.9300000000000000    
GZ8= -1.090000000000000    
GX9= -3.777000000000000    
GY9= 0.7600000000000000E-01
GZ9=-0.4010000000000001    
GX10= -3.283000000000000    
GY10=-0.7660000000000002    
GZ10= 0.6020000000000000    
GX11= -1.919000000000001    
GY11=-0.7550000000000000    
GZ11= 0.9160000000000005    
GX12=  1.261000000000000    
GY12= -2.464000000000000    
GZ12=-0.3300000000000000E-01
GX13=  3.171000000000001    
GY13= -1.969000000000000    
GZ13=  1.425000000000000    
GX14=  4.358000000000000    
GY14= -1.835000000000000    
GZ14=  1.177000000000000    
GX15=  2.807000000000000    
GY15= -2.608000000000000    
GZ15=  2.461000000000001    
GX16=  1.660000000000000    
GY16=  1.688000000000000    
GZ16=-0.7980000000000000    
GX17=-0.5420000000000000    
GY17=  2.356000000000000    
GZ17= -2.024000000000000    
GX18= -4.830000000000000    
GY18= 0.6800000000000002E-01
GZ18=-0.6430000000000000    
GX19= -3.954000000000000    
GY19= -1.424000000000000    
GZ19=  1.134000000000000    
GX20= -1.537000000000000    
GY20= -1.405000000000000    
GZ20=  1.690000000000000    
GX21= -3.288000000000000    
GY21=  1.580000000000000    
GZ21= -1.863000000000000    
GX22= 0.7100000000000000    
GY22=-0.8930000000000000    
GZ22=  2.041000000000000    
GX23=  1.925000000000000    
GY23= 0.3690000000000000    
GZ23=  1.743000000000000    
GX24=  2.631000000000000    
GY24=-0.8690000000000002    
GZ24=-0.3230000000000000    
GX25=  1.840000000000000    
GY25= -3.144000000000000    
GZ25=-0.5570000000000001    
GX26= 0.5510000000000000    
GY26= -2.057000000000000    
GZ26=-0.6660000000000000    
GX27= 0.7890000000000000    
GY27= -2.945000000000000    
GZ27= 0.7520000000000000    
STR=../input/tryptophan_6-31G_scf.mld
[Atoms] Angs
C     1    6         2.1340000000       -1.3750000000        0.5020000000
C     2    6         1.2800000000       -0.3710000000        1.2750000000
C     3    6         0.3310000000        0.3190000000        0.3240000000
C     4    6        -1.0480000000        0.0980000000        0.2270000000
C     5    6        -1.5430000000        0.9400000000       -0.7760000000
N     6    7        -0.4830000000        1.6680000000       -1.2870000000
C     7    6         0.6700000000        1.2950000000       -0.6210000000
C     8    6        -2.9070000000        0.9300000000       -1.0900000000
C     9    6        -3.7770000000        0.0760000000       -0.4010000000
C    10    6        -3.2830000000       -0.7660000000        0.6020000000
C    11    6        -1.9190000000       -0.7550000000        0.9160000000
N    12    7         1.2610000000       -2.4640000000       -0.0330000000
C    13    6         3.1710000000       -1.9690000000        1.4250000000
O    14    8         4.3580000000       -1.8350000000        1.1770000000
O    15    8         2.8070000000       -2.6080000000        2.4610000000
H    16    1         1.6600000000        1.6880000000       -0.7980000000
H    17    1        -0.5420000000        2.3560000000       -2.0240000000
H    18    1        -4.8300000000        0.0680000000       -0.6430000000
H    19    1        -3.9540000000       -1.4240000000        1.1340000000
H    20    1        -1.5370000000       -1.4050000000        1.6900000000
H    21    1        -3.2880000000        1.5800000000       -1.8630000000
H    22    1         0.7100000000       -0.8930000000        2.0410000000
H    23    1         1.9250000000        0.3690000000        1.7430000000
H    24    1         2.6310000000       -0.8690000000       -0.3230000000
H    25    1         1.8400000000       -3.1440000000       -0.5570000000
H    26    1         0.5510000000       -2.0570000000       -0.6660000000
H    27    1         0.7890000000       -2.9450000000        0.7520000000
[GTO]
  1 0
 s    6  1.00
  0.3047524900D+04  0.1834737091D-02
  0.4573695200D+03  0.1403732293D-01
  0.1039486800D+03  0.6884262165D-01
  0.2921015500D+02  0.2321844388D+00
  0.9286663000D+01  0.4679413476D+00
  0.3163927000D+01  0.3623119882D+00
 s    3  1.00
  0.7868272300D+01 -0.1193324245D+00
  0.1881288500D+01 -0.1608541561D+00
  0.5442492600D+00  0.1143456443D+01
 s    1  1.00
  0.1687144800D+00  0.1000000000D+01
 p    3  1.00
  0.7868272300D+01  0.6899906693D-01
  0.1881288500D+01  0.3164239597D+00
  0.5442492600D+00  0.7443082892D+00
 p    1  1.00
  0.1687144800D+00  0.1000000000D+01
  
  2 0
 s    6  1.00
  0.3047524900D+04  0.1834737091D-02
  0.4573695200D+03  0.1403732293D-01
  0.1039486800D+03  0.6884262165D-01
  0.2921015500D+02  0.2321844388D+00
  0.9286663000D+01  0.4679413476D+00
  0.3163927000D+01  0.3623119882D+00
 s    3  1.00
  0.7868272300D+01 -0.1193324245D+00
  0.1881288500D+01 -0.1608541561D+00
  0.5442492600D+00  0.1143456443D+01
 s    1  1.00
  0.1687144800D+00  0.1000000000D+01
 p    3  1.00
  0.7868272300D+01  0.6899906693D-01
  0.1881288500D+01  0.3164239597D+00
  0.5442492600D+00  0.7443082892D+00
 p    1  1.00
  0.1687144800D+00  0.1000000000D+01
  
  3 0
 s    6  1.00
  0.3047524900D+04  0.1834737091D-02
  0.4573695200D+03  0.1403732293D-01
  0.1039486800D+03  0.6884262165D-01
  0.2921015500D+02  0.2321844388D+00
  0.9286663000D+01  0.4679413476D+00
  0.3163927000D+01  0.3623119882D+00
 s    3  1.00
  0.7868272300D+01 -0.1193324245D+00
  0.1881288500D+01 -0.1608541561D+00
  0.5442492600D+00  0.1143456443D+01
 s    1  1.00
  0.1687144800D+00  0.1000000000D+01
 p    3  1.00
  0.7868272300D+01  0.6899906693D-01
  0.1881288500D+01  0.3164239597D+00
  0.5442492600D+00  0.7443082892D+00
 p    1  1.00
  0.1687144800D+00  0.1000000000D+01
  
  4 0
 s    6  1.00
  0.3047524900D+04  0.1834737091D-02
  0.4573695200D+03  0.1403732293D-01
  0.1039486800D+03  0.6884262165D-01
  0.2921015500D+02  0.2321844388D+00
  0.9286663000D+01  0.4679413476D+00
  0.3163927000D+01  0.3623119882D+00
 s    3  1.00
  0.7868272300D+01 -0.1193324245D+00
  0.1881288500D+01 -0.1608541561D+00
  0.5442492600D+00  0.1143456443D+01
 s    1  1.00
  0.1687144800D+00  0.1000000000D+01
 p    3  1.00
  0.7868272300D+01  0.6899906693D-01
  0.1881288500D+01  0.3164239597D+00
  0.5442492600D+00  0.7443082892D+00
 p    1  1.00
  0.1687144800D+00  0.1000000000D+01
  
  5 0
 s    6  1.00
  0.3047524900D+04  0.1834737091D-02
  0.4573695200D+03  0.1403732293D-01
  0.1039486800D+03  0.6884262165D-01
  0.2921015500D+02  0.2321844388D+00
  0.9286663000D+01  0.4679413476D+00
  0.3163927000D+01  0.3623119882D+00
 s    3  1.00
  0.7868272300D+01 -0.1193324245D+00
  0.1881288500D+01 -0.1608541561D+00
  0.5442492600D+00  0.1143456443D+01
 s    1  1.00
  0.1687144800D+00  0.1000000000D+01
 p    3  1.00
  0.7868272300D+01  0.6899906693D-01
  0.1881288500D+01  0.3164239597D+00
  0.5442492600D+00  0.7443082892D+00
 p    1  1.00
  0.1687144800D+00  0.1000000000D+01
  
  6 0
 s    6  1.00
  0.4173511500D+04  0.1834772199D-02
  0.6274579100D+03  0.1399462699D-01
  0.1429020900D+03  0.6858655195D-01
  0.4023432900D+02  0.2322408698D+00
  0.1282021300D+02  0.4690699496D+00
  0.4390437000D+01  0.3604551997D+00
 s    3  1.00
  0.1162636200D+02 -0.1149611854D+00
  0.2716279800D+01 -0.1691174879D+00
  0.7722184000D+00  0.1145851954D+01
 s    1  1.00
  0.2120315000D+00  0.1000000000D+01
 p    3  1.00
  0.1162636200D+02  0.6757974372D-01
  0.2716279800D+01  0.3239072986D+00
  0.7722184000D+00  0.7408951369D+00
 p    1  1.00
  0.2120315000D+00  0.1000000000D+01
  
  7 0
 s    6  1.00
  0.3047524900D+04  0.1834737091D-02
  0.4573695200D+03  0.1403732293D-01
  0.1039486800D+03  0.6884262165D-01
  0.2921015500D+02  0.2321844388D+00
  0.9286663000D+01  0.4679413476D+00
  0.3163927000D+01  0.3623119882D+00
 s    3  1.00
  0.7868272300D+01 -0.1193324245D+00
  0.1881288500D+01 -0.1608541561D+00
  0.5442492600D+00  0.1143456443D+01
 s    1  1.00
  0.1687144800D+00  0.1000000000D+01
 p    3  1.00
  0.7868272300D+01  0.6899906693D-01
  0.1881288500D+01  0.3164239597D+00
  0.5442492600D+00  0.7443082892D+00
 p    1  1.00
  0.1687144800D+00  0.1000000000D+01
  
  8 0
 s    6  1.00
  0.3047524900D+04  0.1834737091D-02
  0.4573695200D+03  0.1403732293D-01
  0.1039486800D+03  0.6884262165D-01
  0.2921015500D+02  0.2321844388D+00
  0.9286663000D+01  0.4679413476D+00
  0.3163927000D+01  0.3623119882D+00
 s    3  1.00
  0.7868272300D+01 -0.1193324245D+00
  0.1881288500D+01 -0.1608541561D+00
  0.5442492600D+00  0.1143456443D+01
 s    1  1.00
  0.1687144800D+00  0.1000000000D+01
 p    3  1.00
  0.7868272300D+01  0.6899906693D-01
  0.1881288500D+01  0.3164239597D+00
  0.5442492600D+00  0.7443082892D+00
 p    1  1.00
  0.1687144800D+00  0.1000000000D+01
  
  9 0
 s    6  1.00
  0.3047524900D+04  0.1834737091D-02
  0.4573695200D+03  0.1403732293D-01
  0.1039486800D+03  0.6884262165D-01
  0.2921015500D+02  0.2321844388D+00
  0.9286663000D+01  0.4679413476D+00
  0.3163927000D+01  0.3623119882D+00
 s    3  1.00
  0.7868272300D+01 -0.1193324245D+00
  0.1881288500D+01 -0.1608541561D+00
  0.5442492600D+00  0.1143456443D+01
 s    1  1.00
  0.1687144800D+00  0.1000000000D+01
 p    3  1.00
  0.7868272300D+01  0.6899906693D-01
  0.1881288500D+01  0.3164239597D+00
  0.5442492600D+00  0.7443082892D+00
 p    1  1.00
  0.1687144800D+00  0.1000000000D+01
  
 10 0
 s    6  1.00
  0.3047524900D+04  0.1834737091D-02
  0.4573695200D+03  0.1403732293D-01
  0.1039486800D+03  0.6884262165D-01
  0.2921015500D+02  0.2321844388D+00
  0.9286663000D+01  0.4679413476D+00
  0.3163927000D+01  0.3623119882D+00
 s    3  1.00
  0.7868272300D+01 -0.1193324245D+00
  0.1881288500D+01 -0.1608541561D+00
  0.5442492600D+00  0.1143456443D+01
 s    1  1.00
  0.1687144800D+00  0.1000000000D+01
 p    3  1.00
  0.7868272300D+01  0.6899906693D-01
  0.1881288500D+01  0.3164239597D+00
  0.5442492600D+00  0.7443082892D+00
 p    1  1.00
  0.1687144800D+00  0.1000000000D+01
  
 11 0
 s    6  1.00
  0.3047524900D+04  0.1834737091D-02
  0.4573695200D+03  0.1403732293D-01
  0.1039486800D+03  0.6884262165D-01
  0.2921015500D+02  0.2321844388D+00
  0.9286663000D+01  0.4679413476D+00
  0.3163927000D+01  0.3623119882D+00
 s    3  1.00
  0.7868272300D+01 -0.1193324245D+00
  0.1881288500D+01 -0.1608541561D+00
  0.5442492600D+00  0.1143456443D+01
 s    1  1.00
  0.1687144800D+00  0.1000000000D+01
 p    3  1.00
  0.7868272300D+01  0.6899906693D-01
  0.1881288500D+01  0.3164239597D+00
  0.5442492600D+00  0.7443082892D+00
 p    1  1.00
  0.1687144800D+00  0.1000000000D+01
  
 12 0
 s    6  1.00
  0.4173511500D+04  0.1834772199D-02
  0.6274579100D+03  0.1399462699D-01
  0.1429020900D+03  0.6858655195D-01
  0.4023432900D+02  0.2322408698D+00
  0.1282021300D+02  0.4690699496D+00
  0.4390437000D+01  0.3604551997D+00
 s    3  1.00
  0.1162636200D+02 -0.1149611854D+00
  0.2716279800D+01 -0.1691174879D+00
  0.7722184000D+00  0.1145851954D+01
 s    1  1.00
  0.2120315000D+00  0.1000000000D+01
 p    3  1.00
  0.1162636200D+02  0.6757974372D-01
  0.2716279800D+01  0.3239072986D+00
  0.7722184000D+00  0.7408951369D+00
 p    1  1.00
  0.2120315000D+00  0.1000000000D+01
  
 13 0
 s    6  1.00
  0.3047524900D+04  0.1834737091D-02
  0.4573695200D+03  0.1403732293D-01
  0.1039486800D+03  0.6884262165D-01
  0.2921015500D+02  0.2321844388D+00
  0.9286663000D+01  0.4679413476D+00
  0.3163927000D+01  0.3623119882D+00
 s    3  1.00
  0.7868272300D+01 -0.1193324245D+00
  0.1881288500D+01 -0.1608541561D+00
  0.5442492600D+00  0.1143456443D+01
 s    1  1.00
  0.1687144800D+00  0.1000000000D+01
 p    3  1.00
  0.7868272300D+01  0.6899906693D-01
  0.1881288500D+01  0.3164239597D+00
  0.5442492600D+00  0.7443082892D+00
 p    1  1.00
  0.1687144800D+00  0.1000000000D+01
  
 14 0
 s    6  1.00
  0.5484671700D+04  0.1831074396D-02
  0.8252349500D+03  0.1395017197D-01
  0.1880469600D+03  0.6844507786D-01
  0.5296450000D+02  0.2327143395D+00
  0.1689757000D+02  0.4701928990D+00
  0.5799635300D+01  0.3585208493D+00
 s    3  1.00
  0.1553961600D+02 -0.1107775519D+00
  0.3599933600D+01 -0.1480262626D+00
  0.1013761800D+01  0.1130767020D+01
 s    1  1.00
  0.2700058200D+00  0.1000000000D+01
 p    3  1.00
  0.1553961600D+02  0.7087426737D-01
  0.3599933600D+01  0.3397528370D+00
  0.1013761800D+01  0.7271585736D+00
 p    1  1.00
  0.2700058200D+00  0.1000000000D+01
  
 15 0
 s    6  1.00
  0.5484671700D+04  0.1831074396D-02
  0.8252349500D+03  0.1395017197D-01
  0.1880469600D+03  0.6844507786D-01
  0.5296450000D+02  0.2327143395D+00
  0.1689757000D+02  0.4701928990D+00
  0.5799635300D+01  0.3585208493D+00
 s    3  1.00
  0.1553961600D+02 -0.1107775519D+00
  0.3599933600D+01 -0.1480262626D+00
  0.1013761800D+01  0.1130767020D+01
 s    1  1.00
  0.2700058200D+00  0.1000000000D+01
 p    3  1.00
  0.1553961600D+02  0.7087426737D-01
  0.3599933600D+01  0.3397528370D+00
  0.1013761800D+01  0.7271585736D+00
 p    1  1.00
  0.2700058200D+00  0.1000000000D+01
  
 16 0
 s    3  1.00
  0.1873113700D+02  0.3349460400D-01
  0.2825394400D+01  0.2347269500D+00
  0.6401216900D+00  0.8137573301D+00
 s    1  1.00
  0.1612777600D+00  0.1000000000D+01
  
 17 0
 s    3  1.00
  0.1873113700D+02  0.3349460400D-01
  0.2825394400D+01  0.2347269500D+00
  0.6401216900D+00  0.8137573301D+00
 s    1  1.00
  0.1612777600D+00  0.1000000000D+01
  
 18 0
 s    3  1.00
  0.1873113700D+02  0.3349460400D-01
  0.2825394400D+01  0.2347269500D+00
  0.6401216900D+00  0.8137573301D+00
 s    1  1.00
  0.1612777600D+00  0.1000000000D+01
  
 19 0
 s    3  1.00
  0.1873113700D+02  0.3349460400D-01
  0.2825394400D+01  0.2347269500D+00
  0.6401216900D+00  0.8137573301D+00
 s    1  1.00
  0.1612777600D+00  0.1000000000D+01
  
 20 0
 s    3  1.00
  0.1873113700D+02  0.3349460400D-01
  0.2825394400D+01  0.2347269500D+00
  0.6401216900D+00  0.8137573301D+00
 s    1  1.00
  0.1612777600D+00  0.1000000000D+01
  
 21 0
 s    3  1.00
  0.1873113700D+02  0.3349460400D-01
  0.2825394400D+01  0.2347269500D+00
  0.6401216900D+00  0.8137573301D+00
 s    1  1.00
  0.1612777600D+00  0.1000000000D+01
  
 22 0
 s    3  1.00
  0.1873113700D+02  0.3349460400D-01
  0.2825394400D+01  0.2347269500D+00
  0.6401216900D+00  0.8137573301D+00
 s    1  1.00
  0.1612777600D+00  0.1000000000D+01
  
 23 0
 s    3  1.00
  0.1873113700D+02  0.3349460400D-01
  0.2825394400D+01  0.2347269500D+00
  0.6401216900D+00  0.8137573301D+00
 s    1  1.00
  0.1612777600D+00  0.1000000000D+01
  
 24 0
 s    3  1.00
  0.1873113700D+02  0.3349460400D-01
  0.2825394400D+01  0.2347269500D+00
  0.6401216900D+00  0.8137573301D+00
 s    1  1.00
  0.1612777600D+00  0.1000000000D+01
  
 25 0
 s    3  1.00
  0.1873113700D+02  0.3349460400D-01
  0.2825394400D+01  0.2347269500D+00
  0.6401216900D+00  0.8137573301D+00
 s    1  1.00
  0.1612777600D+00  0.1000000000D+01
  
 26 0
 s    3  1.00
  0.1873113700D+02  0.3349460400D-01
  0.2825394400D+01  0.2347269500D+00
  0.6401216900D+00  0.8137573301D+00
 s    1  1.00
  0.1612777600D+00  0.1000000000D+01
  
 27 0
 s    3  1.00
  0.1873113700D+02  0.3349460400D-01
  0.2825394400D+01  0.2347269500D+00
  0.6401216900D+00  0.8137573301D+00
 s    1  1.00
  0.1612777600D+00  0.1000000000D+01
 
 
[MO]
 Sym=      1.1
 Ene=     -20.4475
 Spin= Alpha
 Occup=    2.000000
1 -0.000054118156454
2 -0.000649889470901
3 0.003104152231297
4 0.000029978399407
5 0.000087843325912
6 -0.000139788428222
7 -0.002351629980202
8 -0.001226387654385
9 0.002335656283331
10 0.000023558333248
11 0.000144272746850
12 -0.002629844994908
13 -0.000063452074187
14 0.000083152944450
15 -0.000006067871172
16 0.000719310833894
17 0.000568359053696
18 0.001199109543417
19 0.000005127420606
20 0.000058866827929
21 -0.000484864130804
22 -0.000059390020085
23 0.000006426963363
24 -0.000010315408395
25 0.001629997146125
26 -0.000752917976213
27 0.000922054365860
28 -0.000006039143350
29 -0.000056281067439
30 0.000801280502415
31 -0.000044745950988
32 0.000006240584108
33 -0.000014874564521
34 0.001297689997428
35 0.000509601759746
36 -0.000160992848919
37 -0.000005553356763
38 -0.000053834046861
39 -0.000009673905927
40 -0.000006886338246
41 0.000009155981209
42 -0.000019960213252
43 -0.000351791217254
44 -0.000238035327103
45 0.000184292790592
46 -0.000002174239717
47 -0.000031639376323
48 0.000043485862773
49 -0.000007524338567
50 0.000008229479081
51 -0.000009629706658
52 -0.000187575675515
53 -0.000080857414950
54 0.000019196485468
55 -0.000000978473909
56 -0.000005572801040
57 0.000547356314255
58 -0.000018547399737
59 -0.000014547409733
60 0.000003301815872
61 -0.000531746192642
62 -0.000095565166254
63 0.000061624594090
64 -0.000000677744244
65 -0.000009035902854
66 -0.000225674901874
67 -0.000010927080753
68 0.000001477646413
69 -0.000001811023573
70 -0.000010726534150
71 0.000088177542759
72 -0.000106149911519
73 -0.000002233862587
74 -0.000018686640780
75 0.000188244077426
76 -0.000005174506354
77 0.000002372917666
78 -0.000002486660250
79 0.000105340209976
80 0.000005817024442
81 0.000014101426772
82 -0.000000765068238
83 -0.000014585504436
84 -0.000195533079430
85 -0.000017586438671
86 -0.000004144643982
87 -0.000002163093283
88 -0.000027245602395
89 -0.000026277279053
90 0.000039493112815
91 -0.000003599270474
92 -0.000025340359961
93 0.000701944224176
94 0.000002192067048
95 0.000022052966885
96 -0.000013302375310
97 0.000002710410186
98 0.000213922986745
99 -0.000268861260432
100 0.000006682261470
101 0.000024365583603
102 -0.001041868777450
103 -0.000062300988239
104 0.000010183635353
105 -0.000020833911846
106 0.000315495721726
107 -0.000719581387137
108 -0.000486420731145
109 0.000164500186286
110 0.000289912353386
111 0.005360490247042
112 -0.000041590897154
113 0.000017443180531
114 -0.000017970852202
115 0.008451754920664
116 0.001133653832990
117 -0.002185163561234
118 0.99586229637501
119 0.023432421554322
120 -0.015392600016905
121 -0.002297533427535
122 -0.000173003441063
123 0.000316957749647
124 0.004806788701391
125 0.000501543460944
126 -0.000892317178679
127 -0.003324679634400
128 -0.000563908210528
129 0.002043777674627
130 0.000017941949773
131 -0.000072739362100
132 0.000119029816645
133 -0.001010438329801
134 0.000507407464679
135 -0.000771434973386
136 0.000031865391547
137 0.000167481645667
138 0.000005612227543
139 0.000039265399390
140 0.000001041714363
141 0.000032007495971
142 0.000000966570669
143 0.000020091697183
144 0.000019207340211
145 0.000034155144072
146 -0.000006791332212
147 -0.000026013160369
148 0.000049204946827
149 0.000252563512892
150 0.000065452922542
151 -0.000639759820357
152 0.000130060959080
153 0.001106792524530
154 -0.000024063435566
155 -0.000502783952374
156 0.000107605796024
157 0.000121446930318
158 0.000007249183291
159 0.000302068482212
 Sym=      2.1
 Ene=     -20.4362
 Spin= Alpha
 Occup=    2.000000
1 -0.000065152318301
2 -0.000710965977249
3 0.003752852062888
4 -0.000264725086680
5 0.000101782300217
6 -0.000189477941514
7 0.003479922930076
8 0.000165718231250
9 0.000230324194821
10 0.000034763597071
11 0.000276074979794
12 -0.000507088683893
13 0.000104335620584
14 0.000005811827770
15 0.000003150058078
16 -0.001556908333428
17 -0.000315104555998
18 -0.000472135480513
19 -0.000015774252218
20 -0.000181057341567
21 0.000205362619263
22 -0.000056758601712
23 0.000018828080176
24 0.000034033921599
25 0.000590221018580
26 0.000456320782629
27 -0.000757518909819
28 -0.000006331489447
29 -0.000042794243292
30 0.000900162796665
31 0.000023403667174
32 -0.000020928380119
33 0.000023733367546
34 -0.000000426717995
35 0.000148326294886
36 -0.000006765848687
37 0.000004533975555
38 0.000032553072017
39 -0.000389906717028
40 -0.000001600412388
41 -0.000009645663708
42 0.000008347481889
43 -0.000219021825512
44 0.000117813210496
45 -0.000203200253000
46 -0.000000790172350
47 -0.000006621585651
48 0.000108094485660
49 0.000005655175033
50 0.000002021910835
51 -0.000003759586958
52 -0.000034313685454
53 -0.000105300393674
54 0.000103460689513
55 0.000005757318774
56 0.000021944954080
57 -0.000839263709894
58 0.000009632435794
59 0.000022659415525
60 -0.000012388935820
61 0.000049801792153
62 0.000352190219161
63 -0.000267617044433
64 -0.000000089516785
65 -0.000002997619411
66 -0.000075358942851
67 0.000001626155250
68 0.000005595834275
69 -0.000002036893500
70 -0.000059708575539
71 -0.000068569486561
72 0.000055777339421
73 0.000000542988840
74 0.000002296078771
75 -0.000120817736290
76 -0.000003834673714
77 -0.000001307190468
78 0.000002429521479
79 0.000004725033464
80 0.000012872831914
81 -0.000015451182986
82 0.000001975674428
83 0.000023216553735
84 -0.000141298565354
85 0.000006334229695
86 0.000002811937521
87 0.000002700780066
88 -0.000113759097933
89 0.000050792142232
90 -0.000083560051567
91 -0.000000958258263
92 -0.000008506281396
93 0.000093575481715
94 0.000026163278029
95 0.000003113140304
96 -0.000004612526975
97 -0.000186176829043
98 -0.000162970160427
99 0.000100481589532
100 0.000015793574207
101 0.000188762804982
102 -0.000010263661174
103 0.000076819480001
104 -0.000037682243726
105 0.000037771828388
106 -0.000750321488303
107 0.000650978239297
108 -0.000189080496041