[Molden Format]
[Molpro variables]
_NUMVAR=  851.0000000000000    
_AVOGAD= 0.6022136736000000E+24
_BOLTZ= 0.1380658000000000E-22
_CLIGHT=  29979245800.00000    
_EV2006= 0.3674930886769165E-01
_EV= 0.3674932534394180E-01
_ENULL= 0.8854187817000000E-11
_KJOULE= 0.3808798324128737E-03
_KJOULE/MOL= 0.3808798324128737E-03
_CM= 0.4556335267302901E-05
_CM-1= 0.4556335267302901E-05
_DEB2SI= 0.3335641000000000E-29
_AMU2AU=  1822.888390000000    
_KCAL= 0.1593601117815568E-02
_KCAL/MOL= 0.1593601117815568E-02
_KELVIN2006= 0.3166828861084835E-05
_KELVIN= 0.3166814820820034E-05
_JOULE= 0.4359748200000000E-17
_HERTZ2006= 0.1519829850815779E-15
_HERTZ= 0.1519829846011223E-15
_HZ2006= 0.1519829850815779E-15
_HZ= 0.1519829846011223E-15
_JPCAL=  4.184000000000000    
_PLANCK= 0.6626075540000000E-33
_TOA2006= 0.5291772490000000    
_TOA= 0.5291772090000000    
_TOANG2006= 0.5291772490000000    
_TOANG= 0.5291772090000000    
_TORAD= 0.1745329251994330E-01
_TOCM=  219474.6306700000    
_TODEBYE=  2.541580000000000    
_TOEV2006=  27.21139610000000    
_TOE= 0.4803242000000000E-09
_TOEV=  27.21138390000000    
_TOHERTZ2006=  6579683899900000.    
_TOHERTZ=  6579683920700000.    
_TOHZ2006=  6579683899900000.    
_TOHZ=  6579683920700000.    
_TOK2006=  315773.3000000000    
_TOK=  315774.7000000000    
_TOKCAL=  627.5096000000000    
_TOKELVIN2006=  315773.3000000000    
_TOKELVIN=  315774.7000000000    
_TOKJ=  2625.500000000000    
_TOKJOULE=  2625.500000000000    
_TOKG= 0.1660565586000000E-26
_ANG2006=  1.889725988578923    
_ANG=  1.889726131421507    
_ANGSTROM2006=  1.889725988578923    
_ANGSTROM=  1.889726131421507    
_RPAREF=  0.000000000000000    
_RPADISS=  0.000000000000000    
_IGNORE_UNDEF=  2.000000000000000    
_STRICTCHECK=  0.000000000000000    
_SEW_ONEEL=  0.000000000000000    
_CPPDONE=FALSE
_DKROLL_DONE=  0.000000000000000    
_FOCKDONE=TRUE
_GRADONE=FALSE
_HESSDONE=FALSE
_INTDONE=TRUE
_SCFDONE=TRUE
_MODUL_BLOCK=FALSE
_MODUL_CUDA=FALSE
_MODUL_SLATER=FALSE
_MODUL_MRCC=FALSE
_MODUL_NBO6=FALSE
_MODUL_NECI=TRUE
_MODUL_AIMS=TRUE
_MRCC_EXEC=
_FITC_AO_SAVED=FALSE
_FITC_MO_SAVED=FALSE
_SHARED_FS=TRUE
_LSTYP=SEWARD
_INTYP=INTS
_GEOMTYP=ZMAT
_GRADTYP=ALASKA
_DIRECT=FALSE
_DKHO= -1.000000000000000    
_SYNCM=  0.000000000000000    
_BASIS=$BSET
_ZORIENT=  1.000000000000000    
_NELEC=  96.00000000000000    
!SPIN=  0.000000000000000    
_QSDSTEP=  0.000000000000000    
_QSDIRC=  0.000000000000000    
_PROGRAM=HF-SCF
_CPUSTEP=  3.829999999999999    
_SYSSTEP= 0.1100000000000000    
_WALLSTEP=  3.950000000000000    
!DFSCF=  0.000000000000000    
!SCSGRD=  0.000000000000000    
_BASINP=  610.0000000000000    
_CPUTOT=  10.79000000000000    
_CPUSORT=  1.190000000000000    
_SYSSORT= 0.3900000000000000    
_WALLSORT=  1.590000003576279    
_DFTEXFAC=  1.000000000000000    
_DMX= -4.732928615300850    
_DMY=  1.117091198807032    
_DMZ= 0.6329099242816341    
_DMX_SCF= -4.732928615300850    
_DMY_SCF=  1.117091198807032    
_DMZ_SCF= 0.6329099242816341    
_EHOMO=-0.3196935346712048    
_ELUMO= 0.8677396742722798E-01
_ENERGY= -625.9318907015527    
_ENUC=  769.1443669294488    
_GRADEXFAC=  9999.000000000000    
_GRADMETHOD=  1.000000000000000    
_NMRMETHOD=  0.000000000000000    
!GRID_FREEZE= -1.000000000000000    
_ITERATIONS=  10.00000000000000    
_LASTNELEC=  96.00000000000000    
_LASTSPIN=  0.000000000000000    
_LASTSYM=  1.000000000000000    
_MPP_PROG=  0.000000000000000    
_NPROC_MPP=  1.000000000000000    
_NPROC_MPPX=  1.000000000000000    
_NPROC_SMP=  1.000000000000000    
_NUMSTEP=  0.000000000000000    
_ORBITAL=  2100.200000000000    
_PI=  3.141592653589793    
_SEIG_MIN= 0.6127652584773922E-03
_SEWPROP=TRUE
_STATUS=  1.000000000000000    
_SYSTOT= 0.6000000000000000    
_VERSION=  2012001.000000000    
_WALLTOT=  11.39000000000000    
_DATE=23-Sep-15
_LASTORB=RHF
_MACHINE=Linux-3.2.0-90-generic/sce-chem-c01105(x86_64) 64 bit serial version
_OUTPUT=/home/s1267651/phd_mini_19Sept2015/protein/molpro2/tyrosine_6-31g_scf.xml
_PGROUP=C1
_TIME=18:09:43
_LIBMOL=/usr/local/molpro/molprop_2012_1_Linux_x86_64_i8/lib/
!VIBCNT=  0.000000000000000    
!RGHFCNT=  0.000000000000000    
!SURFREC=  0.000000000000000    
!POLYREC=  0.000000000000000    
!DIPREC=  0.000000000000000    
!VSCFREC=  0.000000000000000    
!VCIREC=  0.000000000000000    
!PVCIREC=  0.000000000000000    
!VMP2REC=  0.000000000000000    
!VMCSCFREC=  0.000000000000000    
!VMRCIREC=  0.000000000000000    
!VIBINFO=  0.000000000000000    
!GAREC=  0.000000000000000    
!SCFORB=  21002.00000000000    
!NEWMOL= -1.000000000000000    
!NEWSYM= -1.000000000000000    
_SLFILES=slscratch
_NGSSTO=  9.000000000000000    
_SIN=SIN
_COS=COS
_TAN=TAN
_ACOS=ACOS
_ASIN=ASIN
_ATAN=ATAN
_COSH=COSH
_SINH=SINH
_TANH=TANH
_ABS=ABS
_MOD=MOD
_ERF=ERF
_REFC=REFC
_ERFC=ERFC
_HYPOT=HYPOT
_J0=J0
_J1=J1
_JN=JN
_GAMMA=GAMMA
_LGAMMA=LGAMMA
_Y0=Y0
_Y1=Y1
_YN=YN
_EXP=EXP
_LOG=LOG
_LOG10=LOG10
_SQRT=SQRT
_INT=INT
_NINT=NINT
_MAX=MAX
_MIN=MIN
_COSMO=  0.000000000000000    
_COSMOIT=  0.000000000000000    
_COSMOES=  0.000000000000000    
_COSMOEDS=  0.000000000000000    
_COSMOEC=  0.000000000000000    
_COSMOEDCORR=  0.000000000000000    
_FEPSI=  1.000000000000000    
_SL_IsMM=  0.000000000000000    
_SL_NSYM=  1.000000000000000    
_SL_System_BitSw=  0.000000000000000    
_SL_Unique_atoms=  0.000000000000000    
_SL_GRAD=  0.000000000000000    
_SL_MAXUPD_Hess=  5.000000000000000    
_SL_N_PRINT_COD=  5.000000000000000    
_SL_PRINT_CODES=  0.000000000000000    
_SL_BasType=  0.000000000000000    
_SL_Energy_Pred=  0.000000000000000    
_SL_New_Coords=  0.000000000000000    
_SL_Total_Nuclea=  0.000000000000000    
_SL_Highest_Mltp=  0.000000000000000    
_SL_Ref_Geom=  0.000000000000000    
_SL_Symmetry_ope=  1.000000000000000    
_SL_agrad=  0.000000000000000    
_SL_GrdMax=  0.000000000000000    
_SL_GrdNorm=  0.000000000000000    
_SL_GrdRMS=  0.000000000000000    
_SL_Hss_Q=  0.000000000000000    
_SL_Hss_X=  0.000000000000000    
_SL_BMxOld=  0.000000000000000    
_SL_KtB=  0.000000000000000    
!LATTICE= -1.000000000000000    
!NEWLATTICE=  0.000000000000000    
!LATGRAD_VAR=FALSE
!SEW_LATTICE=  1.000000000000000    
!LOCAL=  0.000000000000000    
!SAVEDOM= -1.000000000000000    
!RESTDOM= -1.000000000000000    
!SAVEDOM_HF= -1.000000000000000    
!RESTDOM_HF= -1.000000000000000    
!HESSREC=  0.000000000000000    
!FREQREC=  0.000000000000000    
!NMODREC=  0.000000000000000    
!GTASKS=  0.000000000000000    
!HTASKS=  0.000000000000000    
!THRCHG= 0.1000000000000000    
!DEBUG= -1.000000000000000    
!CFIT_CPHF=  0.000000000000000    
!RDOMAUX_CPHF=  3.000000000000000    
!THRAO_CPHF= 0.1000000000000000E-09
!THRMO_CPHF= 0.1000000000000000E-08
!THROV_CPHF= 0.1000000000000000E-11
!THRSW_CPHF= 0.1000000000000000E-09
!THRPROD_CPHF= 0.1000000000000000E-08
!THRAOPR_CPHF= 0.1000000000000000E-11
!CFIT_SCFGRD=  0.000000000000000    
!RDOMAUX_SCFGRD=  5.000000000000000    
!THRAO_SCFGRD= 0.1000000000000000E-09
!THRMO_SCFGRD= 0.1000000000000000E-08
!THROV_SCFGRD= 0.1000000000000000E-11
!THRSW_SCFGRD= 0.1000000000000000E-09
!THRPROD_SCFGRD= 0.1000000000000000E-08
!THRAOPR_SCFGRD= 0.1000000000000000E-11
!LOCFIT_SCF=  0.000000000000000    
!LOCFIT_MP2= -1.000000000000000    
_RIDOM=  0.000000000000000    
!CC2_METHOD=  0.000000000000000    
_BASIS2006=FALSE
_SVDDEL= -1.000000000000000    
_SVDDELA= -1.000000000000000    
_SVDDELP= -1.000000000000000    
_SVDDELF= -1.000000000000000    
_SVDDELS= -1.000000000000000    
_SVDDEL_ABS= -1.000000000000000    
_SVDDELA_ABS= -1.000000000000000    
_SVDDELP_ABS= -1.000000000000000    
_SVDDELF_ABS= -1.000000000000000    
_SVDDELS_ABS= -1.000000000000000    
_MAXBASIS=  0.000000000000000    
!OPT_CONICAL=  0.000000000000000    
!CLEARSP_JGRID=  0.000000000000000    
_4EXT_NDISKS=  1.000000000000000    
!ZMP=  0.000000000000000    
_MAXIT_ZMP=  500.0000000000000    
_MAXDIS_ZMP=  100.0000000000000    
_ACCU_ZMP=  14.00000000000000    
_SHIFTA_ZMP= -100.0000000000000    
!EMBEDFLAG=  1.000000000000000    
!EMBED=FALSE
!EMBED_F12=FALSE
!EMBEDNUC=  0.000000000000000    
_EMBEDENERGY=  0.000000000000000    
_KSPACETIME=  0.000000000000000    
_RSPACETIME=  0.000000000000000    
!EMBED_DFC=FALSE
!NUM_VOIDS=  0.000000000000000    
_IBODY=  0.000000000000000    
_EMBE_TOTAL=  0.000000000000000    
_EMBE_HF=  0.000000000000000    
_EMBE_CORR=  0.000000000000000    
!EDFT=  0.000000000000000    
_IFASTLATGRAD=  0.000000000000000    
_SINDEX=  0.000000000000000    
TITLE=TYROSINE
BSET=6-31G
GX1=  2.336000000000000    
GY1= 0.7010000000000000    
GZ1= 0.8500000000000000    
GX2=  1.691000000000000    
GY2=-0.3060000000000000    
GZ2=-0.1010000000000000    
GX3= 0.1920000000000000    
GY3=-0.2760000000000000    
GZ3= 0.7400000000000000E-01
GX4=-0.5860000000000000    
GY4= 0.5960000000000003    
GZ4=-0.6970000000000000    
GX5= -1.976000000000001    
GY5= 0.6230000000000000    
GZ5=-0.5340000000000003    
GX6= -2.589000000000000    
GY6=-0.2210000000000000    
GZ6= 0.4000000000000000    
GX7= -1.811000000000000    
GY7= -1.093000000000000    
GZ7=  1.171000000000000    
GX8=-0.4200000000000000    
GY8= -1.120000000000001    
GZ8=  1.008000000000000    
GX9= -3.949000000000000    
GY9=-0.1940000000000000    
GZ9= 0.5590000000000001    
GX10=  1.825000000000000    
GY10=  2.073000000000000    
GZ10= 0.5440000000000002    
GX11=  3.835000000000000    
GY11= 0.6720000000000000    
GZ11= 0.6750000000000000    
GX12=  4.554000000000000    
GY12= 0.3850000000000000    
GZ12=  1.618000000000000    
GX13=  4.348000000000000    
GY13= 0.9450000000000000    
GZ13=-0.4550000000000001    
GX14=-0.1130000000000000    
GY14=  1.247000000000000    
GZ14= -1.418000000000000    
GX15= -2.576000000000000    
GY15=  1.296000000000000    
GZ15= -1.129000000000000    
GX16= -2.283000000000000    
GY16= -1.744000000000000    
GZ16=  1.891000000000000    
GX17= 0.1800000000000000    
GY17= -1.793000000000000    
GZ17=  1.603000000000000    
GX18=  1.942000000000000    
GY18=-0.4700000000000000E-01
GZ18= -1.128000000000000    
GX19=  2.063000000000000    
GY19= -1.304000000000000    
GZ19= 0.1220000000000000    
GX20= -4.216000000000000    
GY20=-0.8320000000000000    
GZ20=  1.238000000000000    
GX21=  2.085000000000000    
GY21= 0.4420000000000000    
GZ21=  1.877000000000000    
GX22=  2.262000000000000    
GY22=  2.755000000000000    
GZ22=  1.188000000000000    
GX23= 0.7970000000000003    
GY23=  2.093000000000000    
GZ23= 0.6640000000000000    
GX24=  2.063000000000000    
GY24=  2.319000000000000    
GZ24=-0.4330000000000000    
STR=../input/TYROSINE_6-31G_scf.mld
[Atoms] Angs
C     1    6         2.3360000000        0.7010000000        0.8500000000
C     2    6         1.6910000000       -0.3060000000       -0.1010000000
C     3    6         0.1920000000       -0.2760000000        0.0740000000
C     4    6        -0.5860000000        0.5960000000       -0.6970000000
C     5    6        -1.9760000000        0.6230000000       -0.5340000000
C     6    6        -2.5890000000       -0.2210000000        0.4000000000
C     7    6        -1.8110000000       -1.0930000000        1.1710000000
C     8    6        -0.4200000000       -1.1200000000        1.0080000000
O     9    8        -3.9490000000       -0.1940000000        0.5590000000
N    10    7         1.8250000000        2.0730000000        0.5440000000
C    11    6         3.8350000000        0.6720000000        0.6750000000
O    12    8         4.5540000000        0.3850000000        1.6180000000
O    13    8         4.3480000000        0.9450000000       -0.4550000000
H    14    1        -0.1130000000        1.2470000000       -1.4180000000
H    15    1        -2.5760000000        1.2960000000       -1.1290000000
H    16    1        -2.2830000000       -1.7440000000        1.8910000000
H    17    1         0.1800000000       -1.7930000000        1.6030000000
H    18    1         1.9420000000       -0.0470000000       -1.1280000000
H    19    1         2.0630000000       -1.3040000000        0.1220000000
H    20    1        -4.2160000000       -0.8320000000        1.2380000000
H    21    1         2.0850000000        0.4420000000        1.8770000000
H    22    1         2.2620000000        2.7550000000        1.1880000000
H    23    1         0.7970000000        2.0930000000        0.6640000000
H    24    1         2.0630000000        2.3190000000       -0.4330000000
[GTO]
  1 0
 s    6  1.00
  0.3047524900D+04  0.1834737091D-02
  0.4573695200D+03  0.1403732293D-01
  0.1039486800D+03  0.6884262165D-01
  0.2921015500D+02  0.2321844388D+00
  0.9286663000D+01  0.4679413476D+00
  0.3163927000D+01  0.3623119882D+00
 s    3  1.00
  0.7868272300D+01 -0.1193324245D+00
  0.1881288500D+01 -0.1608541561D+00
  0.5442492600D+00  0.1143456443D+01
 s    1  1.00
  0.1687144800D+00  0.1000000000D+01
 p    3  1.00
  0.7868272300D+01  0.6899906693D-01
  0.1881288500D+01  0.3164239597D+00
  0.5442492600D+00  0.7443082892D+00
 p    1  1.00
  0.1687144800D+00  0.1000000000D+01
  
  2 0
 s    6  1.00
  0.3047524900D+04  0.1834737091D-02
  0.4573695200D+03  0.1403732293D-01
  0.1039486800D+03  0.6884262165D-01
  0.2921015500D+02  0.2321844388D+00
  0.9286663000D+01  0.4679413476D+00
  0.3163927000D+01  0.3623119882D+00
 s    3  1.00
  0.7868272300D+01 -0.1193324245D+00
  0.1881288500D+01 -0.1608541561D+00
  0.5442492600D+00  0.1143456443D+01
 s    1  1.00
  0.1687144800D+00  0.1000000000D+01
 p    3  1.00
  0.7868272300D+01  0.6899906693D-01
  0.1881288500D+01  0.3164239597D+00
  0.5442492600D+00  0.7443082892D+00
 p    1  1.00
  0.1687144800D+00  0.1000000000D+01
  
  3 0
 s    6  1.00
  0.3047524900D+04  0.1834737091D-02
  0.4573695200D+03  0.1403732293D-01
  0.1039486800D+03  0.6884262165D-01
  0.2921015500D+02  0.2321844388D+00
  0.9286663000D+01  0.4679413476D+00
  0.3163927000D+01  0.3623119882D+00
 s    3  1.00
  0.7868272300D+01 -0.1193324245D+00
  0.1881288500D+01 -0.1608541561D+00
  0.5442492600D+00  0.1143456443D+01
 s    1  1.00
  0.1687144800D+00  0.1000000000D+01
 p    3  1.00
  0.7868272300D+01  0.6899906693D-01
  0.1881288500D+01  0.3164239597D+00
  0.5442492600D+00  0.7443082892D+00
 p    1  1.00
  0.1687144800D+00  0.1000000000D+01
  
  4 0
 s    6  1.00
  0.3047524900D+04  0.1834737091D-02
  0.4573695200D+03  0.1403732293D-01
  0.1039486800D+03  0.6884262165D-01
  0.2921015500D+02  0.2321844388D+00
  0.9286663000D+01  0.4679413476D+00
  0.3163927000D+01  0.3623119882D+00
 s    3  1.00
  0.7868272300D+01 -0.1193324245D+00
  0.1881288500D+01 -0.1608541561D+00
  0.5442492600D+00  0.1143456443D+01
 s    1  1.00
  0.1687144800D+00  0.1000000000D+01
 p    3  1.00
  0.7868272300D+01  0.6899906693D-01
  0.1881288500D+01  0.3164239597D+00
  0.5442492600D+00  0.7443082892D+00
 p    1  1.00
  0.1687144800D+00  0.1000000000D+01
  
  5 0
 s    6  1.00
  0.3047524900D+04  0.1834737091D-02
  0.4573695200D+03  0.1403732293D-01
  0.1039486800D+03  0.6884262165D-01
  0.2921015500D+02  0.2321844388D+00
  0.9286663000D+01  0.4679413476D+00
  0.3163927000D+01  0.3623119882D+00
 s    3  1.00
  0.7868272300D+01 -0.1193324245D+00
  0.1881288500D+01 -0.1608541561D+00
  0.5442492600D+00  0.1143456443D+01
 s    1  1.00
  0.1687144800D+00  0.1000000000D+01
 p    3  1.00
  0.7868272300D+01  0.6899906693D-01
  0.1881288500D+01  0.3164239597D+00
  0.5442492600D+00  0.7443082892D+00
 p    1  1.00
  0.1687144800D+00  0.1000000000D+01
  
  6 0
 s    6  1.00
  0.3047524900D+04  0.1834737091D-02
  0.4573695200D+03  0.1403732293D-01
  0.1039486800D+03  0.6884262165D-01
  0.2921015500D+02  0.2321844388D+00
  0.9286663000D+01  0.4679413476D+00
  0.3163927000D+01  0.3623119882D+00
 s    3  1.00
  0.7868272300D+01 -0.1193324245D+00
  0.1881288500D+01 -0.1608541561D+00
  0.5442492600D+00  0.1143456443D+01
 s    1  1.00
  0.1687144800D+00  0.1000000000D+01
 p    3  1.00
  0.7868272300D+01  0.6899906693D-01
  0.1881288500D+01  0.3164239597D+00
  0.5442492600D+00  0.7443082892D+00
 p    1  1.00
  0.1687144800D+00  0.1000000000D+01
  
  7 0
 s    6  1.00
  0.3047524900D+04  0.1834737091D-02
  0.4573695200D+03  0.1403732293D-01
  0.1039486800D+03  0.6884262165D-01
  0.2921015500D+02  0.2321844388D+00
  0.9286663000D+01  0.4679413476D+00
  0.3163927000D+01  0.3623119882D+00
 s    3  1.00
  0.7868272300D+01 -0.1193324245D+00
  0.1881288500D+01 -0.1608541561D+00
  0.5442492600D+00  0.1143456443D+01
 s    1  1.00
  0.1687144800D+00  0.1000000000D+01
 p    3  1.00
  0.7868272300D+01  0.6899906693D-01
  0.1881288500D+01  0.3164239597D+00
  0.5442492600D+00  0.7443082892D+00
 p    1  1.00
  0.1687144800D+00  0.1000000000D+01
  
  8 0
 s    6  1.00
  0.3047524900D+04  0.1834737091D-02
  0.4573695200D+03  0.1403732293D-01
  0.1039486800D+03  0.6884262165D-01
  0.2921015500D+02  0.2321844388D+00
  0.9286663000D+01  0.4679413476D+00
  0.3163927000D+01  0.3623119882D+00
 s    3  1.00
  0.7868272300D+01 -0.1193324245D+00
  0.1881288500D+01 -0.1608541561D+00
  0.5442492600D+00  0.1143456443D+01
 s    1  1.00
  0.1687144800D+00  0.1000000000D+01
 p    3  1.00
  0.7868272300D+01  0.6899906693D-01
  0.1881288500D+01  0.3164239597D+00
  0.5442492600D+00  0.7443082892D+00
 p    1  1.00
  0.1687144800D+00  0.1000000000D+01
  
  9 0
 s    6  1.00
  0.5484671700D+04  0.1831074396D-02
  0.8252349500D+03  0.1395017197D-01
  0.1880469600D+03  0.6844507786D-01
  0.5296450000D+02  0.2327143395D+00
  0.1689757000D+02  0.4701928990D+00
  0.5799635300D+01  0.3585208493D+00
 s    3  1.00
  0.1553961600D+02 -0.1107775519D+00
  0.3599933600D+01 -0.1480262626D+00
  0.1013761800D+01  0.1130767020D+01
 s    1  1.00
  0.2700058200D+00  0.1000000000D+01
 p    3  1.00
  0.1553961600D+02  0.7087426737D-01
  0.3599933600D+01  0.3397528370D+00
  0.1013761800D+01  0.7271585736D+00
 p    1  1.00
  0.2700058200D+00  0.1000000000D+01
  
 10 0
 s    6  1.00
  0.4173511500D+04  0.1834772199D-02
  0.6274579100D+03  0.1399462699D-01
  0.1429020900D+03  0.6858655195D-01
  0.4023432900D+02  0.2322408698D+00
  0.1282021300D+02  0.4690699496D+00
  0.4390437000D+01  0.3604551997D+00
 s    3  1.00
  0.1162636200D+02 -0.1149611854D+00
  0.2716279800D+01 -0.1691174879D+00
  0.7722184000D+00  0.1145851954D+01
 s    1  1.00
  0.2120315000D+00  0.1000000000D+01
 p    3  1.00
  0.1162636200D+02  0.6757974372D-01
  0.2716279800D+01  0.3239072986D+00
  0.7722184000D+00  0.7408951369D+00
 p    1  1.00
  0.2120315000D+00  0.1000000000D+01
  
 11 0
 s    6  1.00
  0.3047524900D+04  0.1834737091D-02
  0.4573695200D+03  0.1403732293D-01
  0.1039486800D+03  0.6884262165D-01
  0.2921015500D+02  0.2321844388D+00
  0.9286663000D+01  0.4679413476D+00
  0.3163927000D+01  0.3623119882D+00
 s    3  1.00
  0.7868272300D+01 -0.1193324245D+00
  0.1881288500D+01 -0.1608541561D+00
  0.5442492600D+00  0.1143456443D+01
 s    1  1.00
  0.1687144800D+00  0.1000000000D+01
 p    3  1.00
  0.7868272300D+01  0.6899906693D-01
  0.1881288500D+01  0.3164239597D+00
  0.5442492600D+00  0.7443082892D+00
 p    1  1.00
  0.1687144800D+00  0.1000000000D+01
  
 12 0
 s    6  1.00
  0.5484671700D+04  0.1831074396D-02
  0.8252349500D+03  0.1395017197D-01
  0.1880469600D+03  0.6844507786D-01
  0.5296450000D+02  0.2327143395D+00
  0.1689757000D+02  0.4701928990D+00
  0.5799635300D+01  0.3585208493D+00
 s    3  1.00
  0.1553961600D+02 -0.1107775519D+00
  0.3599933600D+01 -0.1480262626D+00
  0.1013761800D+01  0.1130767020D+01
 s    1  1.00
  0.2700058200D+00  0.1000000000D+01
 p    3  1.00
  0.1553961600D+02  0.7087426737D-01
  0.3599933600D+01  0.3397528370D+00
  0.1013761800D+01  0.7271585736D+00
 p    1  1.00
  0.2700058200D+00  0.1000000000D+01
  
 13 0
 s    6  1.00
  0.5484671700D+04  0.1831074396D-02
  0.8252349500D+03  0.1395017197D-01
  0.1880469600D+03  0.6844507786D-01
  0.5296450000D+02  0.2327143395D+00
  0.1689757000D+02  0.4701928990D+00
  0.5799635300D+01  0.3585208493D+00
 s    3  1.00
  0.1553961600D+02 -0.1107775519D+00
  0.3599933600D+01 -0.1480262626D+00
  0.1013761800D+01  0.1130767020D+01
 s    1  1.00
  0.2700058200D+00  0.1000000000D+01
 p    3  1.00
  0.1553961600D+02  0.7087426737D-01
  0.3599933600D+01  0.3397528370D+00
  0.1013761800D+01  0.7271585736D+00
 p    1  1.00
  0.2700058200D+00  0.1000000000D+01
  
 14 0
 s    3  1.00
  0.1873113700D+02  0.3349460400D-01
  0.2825394400D+01  0.2347269500D+00
  0.6401216900D+00  0.8137573301D+00
 s    1  1.00
  0.1612777600D+00  0.1000000000D+01
  
 15 0
 s    3  1.00
  0.1873113700D+02  0.3349460400D-01
  0.2825394400D+01  0.2347269500D+00
  0.6401216900D+00  0.8137573301D+00
 s    1  1.00
  0.1612777600D+00  0.1000000000D+01
  
 16 0
 s    3  1.00
  0.1873113700D+02  0.3349460400D-01
  0.2825394400D+01  0.2347269500D+00
  0.6401216900D+00  0.8137573301D+00
 s    1  1.00
  0.1612777600D+00  0.1000000000D+01
  
 17 0
 s    3  1.00
  0.1873113700D+02  0.3349460400D-01
  0.2825394400D+01  0.2347269500D+00
  0.6401216900D+00  0.8137573301D+00
 s    1  1.00
  0.1612777600D+00  0.1000000000D+01
  
 18 0
 s    3  1.00
  0.1873113700D+02  0.3349460400D-01
  0.2825394400D+01  0.2347269500D+00
  0.6401216900D+00  0.8137573301D+00
 s    1  1.00
  0.1612777600D+00  0.1000000000D+01
  
 19 0
 s    3  1.00
  0.1873113700D+02  0.3349460400D-01
  0.2825394400D+01  0.2347269500D+00
  0.6401216900D+00  0.8137573301D+00
 s    1  1.00
  0.1612777600D+00  0.1000000000D+01
  
 20 0
 s    3  1.00
  0.1873113700D+02  0.3349460400D-01
  0.2825394400D+01  0.2347269500D+00
  0.6401216900D+00  0.8137573301D+00
 s    1  1.00
  0.1612777600D+00  0.1000000000D+01
  
 21 0
 s    3  1.00
  0.1873113700D+02  0.3349460400D-01
  0.2825394400D+01  0.2347269500D+00
  0.6401216900D+00  0.8137573301D+00
 s    1  1.00
  0.1612777600D+00  0.1000000000D+01
  
 22 0
 s    3  1.00
  0.1873113700D+02  0.3349460400D-01
  0.2825394400D+01  0.2347269500D+00
  0.6401216900D+00  0.8137573301D+00
 s    1  1.00
  0.1612777600D+00  0.1000000000D+01
  
 23 0
 s    3  1.00
  0.1873113700D+02  0.3349460400D-01
  0.2825394400D+01  0.2347269500D+00
  0.6401216900D+00  0.8137573301D+00
 s    1  1.00
  0.1612777600D+00  0.1000000000D+01
  
 24 0
 s    3  1.00
  0.1873113700D+02  0.3349460400D-01
  0.2825394400D+01  0.2347269500D+00
  0.6401216900D+00  0.8137573301D+00
 s    1  1.00
  0.1612777600D+00  0.1000000000D+01
 
 
[MO]
 Sym=      1.1
 Ene=     -20.6179
 Spin= Alpha
 Occup=    2.000000
1 0.000000184962332
2 -0.000002797791979
3 -0.000116441266194
4 0.000003578922461
5 0.000004396663538
6 0.000006602359047
7 -0.000075738762473
8 0.000084499619913
9 0.000021966355020
10 -0.000011859026355
11 -0.000088175993753
12 0.001426439264777
13 -0.000037230268276
14 0.000005138743997
15 0.000011392131330
16 -0.000533122461962
17 -0.000093101924982
18 0.000112419504162
19 -0.000020902421670
20 -0.000175816098227
21 0.002050740490190
22 0.000148749494550
23 0.000000112705838
24 -0.000022314568505
25 -0.002669850962141
26 0.000407197787257
27 -0.000029267743026
28 0.000019923051745
29 0.000074086517490
30 -0.004944913568605
31 0.000176481748943
32 0.000020889355271
33 -0.000047395138433
34 0.001313835270515
35 0.001272792046220
36 -0.001456974630753
37 -0.000047013733204
38 -0.000402317680201
39 0.006877455686012
40 -0.000080536213560
41 -0.000009620206726
42 0.000020528538246
43 0.003337097518544
44 -0.003222876672619
45 0.002787707412086
46 0.000096749859020
47 0.000632243468789
48 0.000118595729888
49 0.000052065661639
50 0.000043999339624
51 -0.000051443279697
52 -0.010557896930916
53 -0.001517325721565
54 0.002973517356995
55 -0.000023152597389
56 -0.000282122731870
57 0.003861005661250
58 -0.000003969405457
59 -0.000003353457938
60 0.000003419678610
61 0.004211137845186
62 0.001821355043381
63 -0.002405370390730
64 0.000010763019662
65 -0.000013043773433
66 -0.004523193434217
67 0.000174541827310
68 -0.000052695934384
69 0.000031311047354
70 0.001891813467428
71 -0.000638176514521
72 0.000373666154571
73 0.99586020389157
74 0.023531813923974
75 -0.015033069507681
76 0.001560742466153
77 -0.001145547082134
78 0.000948411237148
79 -0.004159010474181
80 0.001386840343845
81 -0.000830617574668
82 0.000001094455723
83 0.000009407433152
84 -0.000041637989749
85 0.000007093940569
86 -0.000003607834034
87 -0.000001109026831
88 -0.000024609702400
89 0.000030930627749
90 -0.000002823504616
91 -0.000004287107989
92 -0.000043895385608
93 0.000191075870376
94 0.000004617188131
95 0.000004345105837
96 0.000005247818498
97 -0.000097275117891
98 -0.000037435163643
99 -0.000058204767467
100 -0.000001499907509
101 -0.000006077082964
102 0.000020949200978
103 0.000000495768199
104 -0.000002134745958
105 -0.000000825545845
106 0.000004352721617
107 0.000016401280995
108 0.000002125043453
109 -0.000000022608644
110 0.000001386394884
111 -0.000040876480375
112 0.000002326697754
113 0.000000112710313
114 0.000001893148771
115 0.000012777192920
116 0.000008741670438
117 -0.000013488821470
118 -0.000039305176282
119 -0.000362069341394
120 0.000300553654160
121 0.001649253831134
122 0.000373421717932
123 0.001308403638818
124 0.000015045814456
125 -0.000155460906717
126 -0.000022863625299
127 -0.000046824667193
128 -0.000035460419325
129 -0.000122041122421
130 0.000607735482072
131 0.001154056131929
132 0.000006307599162
133 -0.000006195114022
134 0.000002336753737
135 -0.000001357522518
136 0.000014112583617
137 -0.000028778741739
138 0.000009478331883
139 -0.000013643683389
 Sym=      2.1
 Ene=     -20.4521
 Spin= Alpha
 Occup=    2.000000
1 -0.000056563553729
2 -0.000677542512912
3 0.003090351483646
4 -0.000075554882581
5 -0.000029203097941
6 0.000149446362206
7 -0.000145050238464
8 0.000854347640865
9 -0.003499600205669
10 0.000017084251741
11 0.000099103710029
12 -0.001981470061868
13 -0.000097016040811
14 -0.000057489851651
15 -0.000038915028035
16 0.000600523053204
17 -0.001197660740264
18 -0.000117577391901
19 -0.000000138419516
20 0.000036973073817
21 0.000253259730529
22 0.000004097913099
23 0.000026381783308
24 -0.000041124759195
25 0.000775662741135
26 -0.000134935049273
27 0.000178347951016
28 -0.000006635312460
29 -0.000069800295522
30 0.000359738722937
31 -0.000034693922655
32 -0.000007450357480
33 0.000005928874824
34 0.000366890848727
35 -0.000178774016744
36 0.000112553703251
37 -0.000003178218466
38 -0.000024774802391
39 0.000209492939522
40 -0.000009038815799
41 0.000002981431169
42 0.000003538431347
43 0.000186131550511
44 -0.000002217518465
45 -0.000033116118751
46 -0.000000370649652
47 -0.000006959892641
48 -0.000016233375660
49 -0.000003129424357
50 -0.000000331253046
51 0.000002765312847
52 -0.000048098583141
53 0.000037773891341
54 -0.000032966932204
55 -0.000003982626587
56 -0.000044144957472
57 0.000116543980913
58 -0.000017873962585
59 -0.000002987838335
60 0.000009412469881
61 0.000072031291119
62 0.000039208151686
63 -0.000050755849184
64 0.000001030452296
65 0.000012496723041
66 -0.000144180466463
67 -0.000018379429301
68 -0.000003505664893
69 0.000008270709235
70 -0.000106620007240
71 0.000120097532262
72 -0.000140682492680
73 0.000001149137335
74 -0.000004599362214
75 -0.000006048053896
76 -0.000003522821721
77 -0.000000799469331
78 0.000000680930462
79 0.000010692038650
80 0.000000361378680
81 -0.000000088873379
82 0.000008481592755
83 0.000044371841252
84 -0.001129020864810
85 -0.000062258922519
86 0.000007217246011
87 -0.000023656937666
88 0.000255648528461
89 0.000820683569775
90 0.000460748821284
91 0.000162578830972
92 0.000269378912996
93 0.005424414852797
94 -0.000045928829130
95 -0.000002355464052
96 -0.000005861799267
97 0.004777910151983
98 -0.002067408986835
99 0.007050879292888
100 0.99586212692764
101 0.023422220192515
102 -0.015366292689361
103 -0.001511191558267
104 0.000537797131047
105 -0.001687420805681
106 0.002981970101854
107 -0.001159064046640
108 0.003722042541291
109 -0.003412581946615
110 -0.000567695105472
111 0.002041286858036
112 0.000104881971216
113 0.000018428637004
114 -0.000092890465559
115 -0.001360136063274
116 0.000046369968185
117 0.000061427003787
118 -0.000015952972752
119 -0.000036332128403
120 -0.000003707754206
121 0.000041478340265
122 0.000002334971699
123 0.000035471363065
124 0.000006464361830
125 0.000178555050662
126 0.000053650143925
127 0.000336558181806
128 0.000046511445478
129 -0.000672729174475
130 -0.000000876565148
131 0.000010254539705
132 0.000134578572950
133 0.001129390494501
134 -0.000023482697876
135 -0.000517586452363
136 0.000115728904287
137 0.000098918991867
138 0.000019034561966
139 0.000299442043249
 Sym=      3.1
 Ene=     -20.4410
 Spin= Alpha
 Occup=    2.000000
1 -0.000062644676760
2 -0.000688852838548
3 0.003627604647819
4 -0.000331759740532
5 0.000031564401997
6 -0.000001066910026
7 0.002668665305370
8 -0.000908063135528
9 0.002045846364319
10 0.000034307262617
11 0.000270623524484
12 -0.000589675441671
13 0.000084366161006
14 -0.000032675806055
15 0.000057560535294
16 -0.001134854887147
17 0.000801634977009
18 -0.000515824540480
19 -0.000017607202762
20 -0.000196239667139
21 0.000409986093819
22 -0.000047929489283
23 -0.000023425608294
24 -0.000038394339457
25 -0.000064082789616
26 -0.000043437164860
27 0.000571751629172
28 -0.000001352932392
29 -0.000011327962774
30 0.000450553668751
31 0.000051459397216
32 -0.000006610398214
33 0.000000580679029
34 -0.000465588077173
35 -0.000029915379034
36 -0.000057447788566
37 0.000005422362422
38 0.000043047167758
39 -0.000523823624501
40 -0.000002019150276
41 -0.000002387334641
42 0.000002271446188
43 -0.000292821731320
44 0.000062498948657
45 0.000031385672225
46 0.000000025348782
47 -0.000001461838335
48 -0.000044878733875
49 -0.000002666152663
50 0.000011302829287
51 0.000000186410018
52 0.000077183633829
53 -0.000016774562843
54 -0.000055315593189
55 -0.000000100551937
56 -0.000000123642769
57 -0.000022466993474
58 0.000010335574983
59 -0.000004101518975
60 0.000003635769877
61 -0.000057640904823
62 0.000102103436825
63 -0.000041261274476
64 0.000003857797770
65 0.000018195898759
66 -0.000401359939339
67 -0.000013554228208
68 -0.000000402915654
69 0.000002392687627
70 -0.000134151838873
71 -0.000302672458361
72 0.000160845292186