[Molden Format]
[Molpro variables]
_NUMVAR=  836.0000000000000    
_AVOGAD= 0.6022136736000000E+24
_BOLTZ= 0.1380658000000000E-22
_CLIGHT=  29979245800.00000    
_EV2006= 0.3674930886769165E-01
_EV= 0.3674932534394180E-01
_ENULL= 0.8854187817000000E-11
_KJOULE= 0.3808798324128737E-03
_KJOULE/MOL= 0.3808798324128737E-03
_CM= 0.4556335267302901E-05
_CM-1= 0.4556335267302901E-05
_DEB2SI= 0.3335641000000000E-29
_AMU2AU=  1822.888390000000    
_KCAL= 0.1593601117815568E-02
_KCAL/MOL= 0.1593601117815568E-02
_KELVIN2006= 0.3166828861084835E-05
_KELVIN= 0.3166814820820034E-05
_JOULE= 0.4359748200000000E-17
_HERTZ2006= 0.1519829850815779E-15
_HERTZ= 0.1519829846011223E-15
_HZ2006= 0.1519829850815779E-15
_HZ= 0.1519829846011223E-15
_JPCAL=  4.184000000000000    
_PLANCK= 0.6626075540000000E-33
_TOA2006= 0.5291772490000000    
_TOA= 0.5291772090000000    
_TOANG2006= 0.5291772490000000    
_TOANG= 0.5291772090000000    
_TORAD= 0.1745329251994330E-01
_TOCM=  219474.6306700000    
_TODEBYE=  2.541580000000000    
_TOEV2006=  27.21139610000000    
_TOE= 0.4803242000000000E-09
_TOEV=  27.21138390000000    
_TOHERTZ2006=  6579683899900000.    
_TOHERTZ=  6579683920700000.    
_TOHZ2006=  6579683899900000.    
_TOHZ=  6579683920700000.    
_TOK2006=  315773.3000000000    
_TOK=  315774.7000000000    
_TOKCAL=  627.5096000000000    
_TOKELVIN2006=  315773.3000000000    
_TOKELVIN=  315774.7000000000    
_TOKJ=  2625.500000000000    
_TOKJOULE=  2625.500000000000    
_TOKG= 0.1660565586000000E-26
_ANG2006=  1.889725988578923    
_ANG=  1.889726131421507    
_ANGSTROM2006=  1.889725988578923    
_ANGSTROM=  1.889726131421507    
_RPAREF=  0.000000000000000    
_RPADISS=  0.000000000000000    
_IGNORE_UNDEF=  2.000000000000000    
_STRICTCHECK=  0.000000000000000    
_SEW_ONEEL=  0.000000000000000    
_CPPDONE=FALSE
_DKROLL_DONE=  0.000000000000000    
_FOCKDONE=TRUE
_GRADONE=FALSE
_HESSDONE=FALSE
_INTDONE=TRUE
_SCFDONE=TRUE
_MODUL_BLOCK=FALSE
_MODUL_CUDA=FALSE
_MODUL_SLATER=FALSE
_MODUL_MRCC=FALSE
_MODUL_NBO6=FALSE
_MODUL_NECI=TRUE
_MODUL_AIMS=TRUE
_MRCC_EXEC=
_FITC_AO_SAVED=FALSE
_FITC_MO_SAVED=FALSE
_SHARED_FS=TRUE
_LSTYP=SEWARD
_INTYP=INTS
_GEOMTYP=ZMAT
_GRADTYP=ALASKA
_DIRECT=FALSE
_DKHO= -1.000000000000000    
_SYNCM=  0.000000000000000    
_BASIS=$BSET
_ZORIENT=  1.000000000000000    
_NELEC=  64.00000000000000    
!SPIN=  0.000000000000000    
_QSDSTEP=  0.000000000000000    
_QSDIRC=  0.000000000000000    
_PROGRAM=HF-SCF
_CPUSTEP= 0.9800000000000000    
_SYSSTEP= 0.7000000000000001E-01
_WALLSTEP=  1.040000000000000    
!DFSCF=  0.000000000000000    
!SCSGRD=  0.000000000000000    
_BASINP=  610.0000000000000    
_CPUTOT=  3.260000000000000    
_CPUSORT= 0.3699999999999999    
_SYSSORT= 0.1200000000000000    
_WALLSORT= 0.4800000004470348    
_DFTEXFAC=  1.000000000000000    
_DMX= -2.918390298702832    
_DMY=  3.916944852831215    
_DMZ=-0.9659549855091698    
_DMX_SCF= -2.918390298702832    
_DMY_SCF=  3.916944852831215    
_DMZ_SCF=-0.9659549855091698    
_EHOMO=-0.3207428501529548    
_ELUMO= 0.1154860484296477    
_ENERGY= -399.6799889104047    
_ENUC=  410.6581724216142    
_GRADEXFAC=  9999.000000000000    
_GRADMETHOD=  1.000000000000000    
_NMRMETHOD=  0.000000000000000    
!GRID_FREEZE= -1.000000000000000    
_ITERATIONS=  11.00000000000000    
_LASTNELEC=  64.00000000000000    
_LASTSPIN=  0.000000000000000    
_LASTSYM=  1.000000000000000    
_MPP_PROG=  0.000000000000000    
_NPROC_MPP=  1.000000000000000    
_NPROC_MPPX=  1.000000000000000    
_NPROC_SMP=  1.000000000000000    
_NUMSTEP=  0.000000000000000    
_ORBITAL=  2100.200000000000    
_PI=  3.141592653589793    
_SEIG_MIN= 0.3579320291625501E-02
_SEWPROP=TRUE
_STATUS=  1.000000000000000    
_SYSTOT= 0.2100000000000000    
_VERSION=  2012001.000000000    
_WALLTOT=  3.460000000000000    
_DATE=23-Sep-15
_LASTORB=RHF
_MACHINE=Linux-3.2.0-90-generic/sce-chem-c01105(x86_64) 64 bit serial version
_OUTPUT=/home/s1267651/phd_mini_19Sept2015/protein/molpro2/valine_6-31g_scf.xml
_PGROUP=C1
_TIME=18:10:37
_LIBMOL=/usr/local/molpro/molprop_2012_1_Linux_x86_64_i8/lib/
!VIBCNT=  0.000000000000000    
!RGHFCNT=  0.000000000000000    
!SURFREC=  0.000000000000000    
!POLYREC=  0.000000000000000    
!DIPREC=  0.000000000000000    
!VSCFREC=  0.000000000000000    
!VCIREC=  0.000000000000000    
!PVCIREC=  0.000000000000000    
!VMP2REC=  0.000000000000000    
!VMCSCFREC=  0.000000000000000    
!VMRCIREC=  0.000000000000000    
!VIBINFO=  0.000000000000000    
!GAREC=  0.000000000000000    
!SCFORB=  21002.00000000000    
!NEWMOL= -1.000000000000000    
!NEWSYM= -1.000000000000000    
_SLFILES=slscratch
_NGSSTO=  9.000000000000000    
_SIN=SIN
_COS=COS
_TAN=TAN
_ACOS=ACOS
_ASIN=ASIN
_ATAN=ATAN
_COSH=COSH
_SINH=SINH
_TANH=TANH
_ABS=ABS
_MOD=MOD
_ERF=ERF
_REFC=REFC
_ERFC=ERFC
_HYPOT=HYPOT
_J0=J0
_J1=J1
_JN=JN
_GAMMA=GAMMA
_LGAMMA=LGAMMA
_Y0=Y0
_Y1=Y1
_YN=YN
_EXP=EXP
_LOG=LOG
_LOG10=LOG10
_SQRT=SQRT
_INT=INT
_NINT=NINT
_MAX=MAX
_MIN=MIN
_COSMO=  0.000000000000000    
_COSMOIT=  0.000000000000000    
_COSMOES=  0.000000000000000    
_COSMOEDS=  0.000000000000000    
_COSMOEC=  0.000000000000000    
_COSMOEDCORR=  0.000000000000000    
_FEPSI=  1.000000000000000    
_SL_IsMM=  0.000000000000000    
_SL_NSYM=  1.000000000000000    
_SL_System_BitSw=  0.000000000000000    
_SL_Unique_atoms=  0.000000000000000    
_SL_GRAD=  0.000000000000000    
_SL_MAXUPD_Hess=  5.000000000000000    
_SL_N_PRINT_COD=  5.000000000000000    
_SL_PRINT_CODES=  0.000000000000000    
_SL_BasType=  0.000000000000000    
_SL_Energy_Pred=  0.000000000000000    
_SL_New_Coords=  0.000000000000000    
_SL_Total_Nuclea=  0.000000000000000    
_SL_Highest_Mltp=  0.000000000000000    
_SL_Ref_Geom=  0.000000000000000    
_SL_Symmetry_ope=  1.000000000000000    
_SL_agrad=  0.000000000000000    
_SL_GrdMax=  0.000000000000000    
_SL_GrdNorm=  0.000000000000000    
_SL_GrdRMS=  0.000000000000000    
_SL_Hss_Q=  0.000000000000000    
_SL_Hss_X=  0.000000000000000    
_SL_BMxOld=  0.000000000000000    
_SL_KtB=  0.000000000000000    
!LATTICE= -1.000000000000000    
!NEWLATTICE=  0.000000000000000    
!LATGRAD_VAR=FALSE
!SEW_LATTICE=  1.000000000000000    
!LOCAL=  0.000000000000000    
!SAVEDOM= -1.000000000000000    
!RESTDOM= -1.000000000000000    
!SAVEDOM_HF= -1.000000000000000    
!RESTDOM_HF= -1.000000000000000    
!HESSREC=  0.000000000000000    
!FREQREC=  0.000000000000000    
!NMODREC=  0.000000000000000    
!GTASKS=  0.000000000000000    
!HTASKS=  0.000000000000000    
!THRCHG= 0.1000000000000000    
!DEBUG= -1.000000000000000    
!CFIT_CPHF=  0.000000000000000    
!RDOMAUX_CPHF=  3.000000000000000    
!THRAO_CPHF= 0.1000000000000000E-09
!THRMO_CPHF= 0.1000000000000000E-08
!THROV_CPHF= 0.1000000000000000E-11
!THRSW_CPHF= 0.1000000000000000E-09
!THRPROD_CPHF= 0.1000000000000000E-08
!THRAOPR_CPHF= 0.1000000000000000E-11
!CFIT_SCFGRD=  0.000000000000000    
!RDOMAUX_SCFGRD=  5.000000000000000    
!THRAO_SCFGRD= 0.1000000000000000E-09
!THRMO_SCFGRD= 0.1000000000000000E-08
!THROV_SCFGRD= 0.1000000000000000E-11
!THRSW_SCFGRD= 0.1000000000000000E-09
!THRPROD_SCFGRD= 0.1000000000000000E-08
!THRAOPR_SCFGRD= 0.1000000000000000E-11
!LOCFIT_SCF=  0.000000000000000    
!LOCFIT_MP2= -1.000000000000000    
_RIDOM=  0.000000000000000    
!CC2_METHOD=  0.000000000000000    
_BASIS2006=FALSE
_SVDDEL= -1.000000000000000    
_SVDDELA= -1.000000000000000    
_SVDDELP= -1.000000000000000    
_SVDDELF= -1.000000000000000    
_SVDDELS= -1.000000000000000    
_SVDDEL_ABS= -1.000000000000000    
_SVDDELA_ABS= -1.000000000000000    
_SVDDELP_ABS= -1.000000000000000    
_SVDDELF_ABS= -1.000000000000000    
_SVDDELS_ABS= -1.000000000000000    
_MAXBASIS=  0.000000000000000    
!OPT_CONICAL=  0.000000000000000    
!CLEARSP_JGRID=  0.000000000000000    
_4EXT_NDISKS=  1.000000000000000    
!ZMP=  0.000000000000000    
_MAXIT_ZMP=  500.0000000000000    
_MAXDIS_ZMP=  100.0000000000000    
_ACCU_ZMP=  14.00000000000000    
_SHIFTA_ZMP= -100.0000000000000    
!EMBEDFLAG=  1.000000000000000    
!EMBED=FALSE
!EMBED_F12=FALSE
!EMBEDNUC=  0.000000000000000    
_EMBEDENERGY=  0.000000000000000    
_KSPACETIME=  0.000000000000000    
_RSPACETIME=  0.000000000000000    
!EMBED_DFC=FALSE
!NUM_VOIDS=  0.000000000000000    
_IBODY=  0.000000000000000    
_EMBE_TOTAL=  0.000000000000000    
_EMBE_HF=  0.000000000000000    
_EMBE_CORR=  0.000000000000000    
!EDFT=  0.000000000000000    
_IFASTLATGRAD=  0.000000000000000    
_SINDEX=  0.000000000000000    
TITLE=VALINE
BSET=6-31G
GX1= 0.6390000000000000    
GY1= 0.3890000000000000    
GZ1= 0.9800000000000000E-01
GX2=-0.6929999999999999    
GY2=-0.3240000000000000    
GZ2=-0.1350000000000000    
GX3= -1.834000000000000    
GY3= 0.6850000000000001    
GZ3=-0.3900000000000000E-01
GX4=-0.8810000000000000    
GY4= -1.407000000000000    
GZ4= 0.9230000000000000    
GX5= 0.8230000000000000    
GY5=  1.451000000000000    
GZ5=-0.9379999999999999    
GX6=  1.767000000000000    
GY6=-0.6090000000000000    
GZ6= 0.3000000000000000E-02
GX7=  2.503000000000000    
GY7=-0.7910000000000000    
GZ7= 0.9600000000000000    
GX8=  1.951000000000000    
GY8= -1.259000000000000    
GZ8= -1.072000000000000    
GX9= 0.6390000000000000    
GY9= 0.8440000000000000    
GZ9=  1.087000000000000    
GX10=-0.6929999999999999    
GY10=-0.7780000000000000    
GZ10= -1.123000000000000    
GX11=  1.725000000000000    
GY11=  1.934000000000001    
GZ11=-0.7810000000000001    
GX12= 0.5000000000000000E-01
GY12=  2.135000000000000    
GZ12=-0.8730000000000000    
GX13= 0.8230000000000000    
GY13=  1.018000000000000    
GZ13= -1.879000000000000    
GX14= -2.782000000000000    
GY14= 0.1780000000000000    
GZ14=-0.2040000000000000    
GX15= -1.699000000000000    
GY15=  1.458000000000000    
GZ15=-0.7930000000000000    
GX16= -1.834000000000000    
GY16=  1.140000000000000    
GZ16= 0.9500000000000000    
GX17= -1.829000000000000    
GY17= -1.914000000000001    
GZ17= 0.7580000000000000    
GX18=-0.6800000000000002E-01
GY18= -2.126000000000001    
GZ18= 0.8550000000000000    
GX19=-0.8810000000000000    
GY19=-0.9520000000000000    
GZ19=  1.912000000000000    
STR=../input/VALINE_6-31G_scf.mld
[Atoms] Angs
C     1    6         0.6390000000        0.3890000000        0.0980000000
C     2    6        -0.6930000000       -0.3240000000       -0.1350000000
C     3    6        -1.8340000000        0.6850000000       -0.0390000000
C     4    6        -0.8810000000       -1.4070000000        0.9230000000
N     5    7         0.8230000000        1.4510000000       -0.9380000000
C     6    6         1.7670000000       -0.6090000000        0.0030000000
O     7    8         2.5030000000       -0.7910000000        0.9600000000
O     8    8         1.9510000000       -1.2590000000       -1.0720000000
H     9    1         0.6390000000        0.8440000000        1.0870000000
H    10    1        -0.6930000000       -0.7780000000       -1.1230000000
H    11    1         1.7250000000        1.9340000000       -0.7810000000
H    12    1         0.0500000000        2.1350000000       -0.8730000000
H    13    1         0.8230000000        1.0180000000       -1.8790000000
H    14    1        -2.7820000000        0.1780000000       -0.2040000000
H    15    1        -1.6990000000        1.4580000000       -0.7930000000
H    16    1        -1.8340000000        1.1400000000        0.9500000000
H    17    1        -1.8290000000       -1.9140000000        0.7580000000
H    18    1        -0.0680000000       -2.1260000000        0.8550000000
H    19    1        -0.8810000000       -0.9520000000        1.9120000000
[GTO]
  1 0
 s    6  1.00
  0.3047524900D+04  0.1834737091D-02
  0.4573695200D+03  0.1403732293D-01
  0.1039486800D+03  0.6884262165D-01
  0.2921015500D+02  0.2321844388D+00
  0.9286663000D+01  0.4679413476D+00
  0.3163927000D+01  0.3623119882D+00
 s    3  1.00
  0.7868272300D+01 -0.1193324245D+00
  0.1881288500D+01 -0.1608541561D+00
  0.5442492600D+00  0.1143456443D+01
 s    1  1.00
  0.1687144800D+00  0.1000000000D+01
 p    3  1.00
  0.7868272300D+01  0.6899906693D-01
  0.1881288500D+01  0.3164239597D+00
  0.5442492600D+00  0.7443082892D+00
 p    1  1.00
  0.1687144800D+00  0.1000000000D+01
  
  2 0
 s    6  1.00
  0.3047524900D+04  0.1834737091D-02
  0.4573695200D+03  0.1403732293D-01
  0.1039486800D+03  0.6884262165D-01
  0.2921015500D+02  0.2321844388D+00
  0.9286663000D+01  0.4679413476D+00
  0.3163927000D+01  0.3623119882D+00
 s    3  1.00
  0.7868272300D+01 -0.1193324245D+00
  0.1881288500D+01 -0.1608541561D+00
  0.5442492600D+00  0.1143456443D+01
 s    1  1.00
  0.1687144800D+00  0.1000000000D+01
 p    3  1.00
  0.7868272300D+01  0.6899906693D-01
  0.1881288500D+01  0.3164239597D+00
  0.5442492600D+00  0.7443082892D+00
 p    1  1.00
  0.1687144800D+00  0.1000000000D+01
  
  3 0
 s    6  1.00
  0.3047524900D+04  0.1834737091D-02
  0.4573695200D+03  0.1403732293D-01
  0.1039486800D+03  0.6884262165D-01
  0.2921015500D+02  0.2321844388D+00
  0.9286663000D+01  0.4679413476D+00
  0.3163927000D+01  0.3623119882D+00
 s    3  1.00
  0.7868272300D+01 -0.1193324245D+00
  0.1881288500D+01 -0.1608541561D+00
  0.5442492600D+00  0.1143456443D+01
 s    1  1.00
  0.1687144800D+00  0.1000000000D+01
 p    3  1.00
  0.7868272300D+01  0.6899906693D-01
  0.1881288500D+01  0.3164239597D+00
  0.5442492600D+00  0.7443082892D+00
 p    1  1.00
  0.1687144800D+00  0.1000000000D+01
  
  4 0
 s    6  1.00
  0.3047524900D+04  0.1834737091D-02
  0.4573695200D+03  0.1403732293D-01
  0.1039486800D+03  0.6884262165D-01
  0.2921015500D+02  0.2321844388D+00
  0.9286663000D+01  0.4679413476D+00
  0.3163927000D+01  0.3623119882D+00
 s    3  1.00
  0.7868272300D+01 -0.1193324245D+00
  0.1881288500D+01 -0.1608541561D+00
  0.5442492600D+00  0.1143456443D+01
 s    1  1.00
  0.1687144800D+00  0.1000000000D+01
 p    3  1.00
  0.7868272300D+01  0.6899906693D-01
  0.1881288500D+01  0.3164239597D+00
  0.5442492600D+00  0.7443082892D+00
 p    1  1.00
  0.1687144800D+00  0.1000000000D+01
  
  5 0
 s    6  1.00
  0.4173511500D+04  0.1834772199D-02
  0.6274579100D+03  0.1399462699D-01
  0.1429020900D+03  0.6858655195D-01
  0.4023432900D+02  0.2322408698D+00
  0.1282021300D+02  0.4690699496D+00
  0.4390437000D+01  0.3604551997D+00
 s    3  1.00
  0.1162636200D+02 -0.1149611854D+00
  0.2716279800D+01 -0.1691174879D+00
  0.7722184000D+00  0.1145851954D+01
 s    1  1.00
  0.2120315000D+00  0.1000000000D+01
 p    3  1.00
  0.1162636200D+02  0.6757974372D-01
  0.2716279800D+01  0.3239072986D+00
  0.7722184000D+00  0.7408951369D+00
 p    1  1.00
  0.2120315000D+00  0.1000000000D+01
  
  6 0
 s    6  1.00
  0.3047524900D+04  0.1834737091D-02
  0.4573695200D+03  0.1403732293D-01
  0.1039486800D+03  0.6884262165D-01
  0.2921015500D+02  0.2321844388D+00
  0.9286663000D+01  0.4679413476D+00
  0.3163927000D+01  0.3623119882D+00
 s    3  1.00
  0.7868272300D+01 -0.1193324245D+00
  0.1881288500D+01 -0.1608541561D+00
  0.5442492600D+00  0.1143456443D+01
 s    1  1.00
  0.1687144800D+00  0.1000000000D+01
 p    3  1.00
  0.7868272300D+01  0.6899906693D-01
  0.1881288500D+01  0.3164239597D+00
  0.5442492600D+00  0.7443082892D+00
 p    1  1.00
  0.1687144800D+00  0.1000000000D+01
  
  7 0
 s    6  1.00
  0.5484671700D+04  0.1831074396D-02
  0.8252349500D+03  0.1395017197D-01
  0.1880469600D+03  0.6844507786D-01
  0.5296450000D+02  0.2327143395D+00
  0.1689757000D+02  0.4701928990D+00
  0.5799635300D+01  0.3585208493D+00
 s    3  1.00
  0.1553961600D+02 -0.1107775519D+00
  0.3599933600D+01 -0.1480262626D+00
  0.1013761800D+01  0.1130767020D+01
 s    1  1.00
  0.2700058200D+00  0.1000000000D+01
 p    3  1.00
  0.1553961600D+02  0.7087426737D-01
  0.3599933600D+01  0.3397528370D+00
  0.1013761800D+01  0.7271585736D+00
 p    1  1.00
  0.2700058200D+00  0.1000000000D+01
  
  8 0
 s    6  1.00
  0.5484671700D+04  0.1831074396D-02
  0.8252349500D+03  0.1395017197D-01
  0.1880469600D+03  0.6844507786D-01
  0.5296450000D+02  0.2327143395D+00
  0.1689757000D+02  0.4701928990D+00
  0.5799635300D+01  0.3585208493D+00
 s    3  1.00
  0.1553961600D+02 -0.1107775519D+00
  0.3599933600D+01 -0.1480262626D+00
  0.1013761800D+01  0.1130767020D+01
 s    1  1.00
  0.2700058200D+00  0.1000000000D+01
 p    3  1.00
  0.1553961600D+02  0.7087426737D-01
  0.3599933600D+01  0.3397528370D+00
  0.1013761800D+01  0.7271585736D+00
 p    1  1.00
  0.2700058200D+00  0.1000000000D+01
  
  9 0
 s    3  1.00
  0.1873113700D+02  0.3349460400D-01
  0.2825394400D+01  0.2347269500D+00
  0.6401216900D+00  0.8137573301D+00
 s    1  1.00
  0.1612777600D+00  0.1000000000D+01
  
 10 0
 s    3  1.00
  0.1873113700D+02  0.3349460400D-01
  0.2825394400D+01  0.2347269500D+00
  0.6401216900D+00  0.8137573301D+00
 s    1  1.00
  0.1612777600D+00  0.1000000000D+01
  
 11 0
 s    3  1.00
  0.1873113700D+02  0.3349460400D-01
  0.2825394400D+01  0.2347269500D+00
  0.6401216900D+00  0.8137573301D+00
 s    1  1.00
  0.1612777600D+00  0.1000000000D+01
  
 12 0
 s    3  1.00
  0.1873113700D+02  0.3349460400D-01
  0.2825394400D+01  0.2347269500D+00
  0.6401216900D+00  0.8137573301D+00
 s    1  1.00
  0.1612777600D+00  0.1000000000D+01
  
 13 0
 s    3  1.00
  0.1873113700D+02  0.3349460400D-01
  0.2825394400D+01  0.2347269500D+00
  0.6401216900D+00  0.8137573301D+00
 s    1  1.00
  0.1612777600D+00  0.1000000000D+01
  
 14 0
 s    3  1.00
  0.1873113700D+02  0.3349460400D-01
  0.2825394400D+01  0.2347269500D+00
  0.6401216900D+00  0.8137573301D+00
 s    1  1.00
  0.1612777600D+00  0.1000000000D+01
  
 15 0
 s    3  1.00
  0.1873113700D+02  0.3349460400D-01
  0.2825394400D+01  0.2347269500D+00
  0.6401216900D+00  0.8137573301D+00
 s    1  1.00
  0.1612777600D+00  0.1000000000D+01
  
 16 0
 s    3  1.00
  0.1873113700D+02  0.3349460400D-01
  0.2825394400D+01  0.2347269500D+00
  0.6401216900D+00  0.8137573301D+00
 s    1  1.00
  0.1612777600D+00  0.1000000000D+01
  
 17 0
 s    3  1.00
  0.1873113700D+02  0.3349460400D-01
  0.2825394400D+01  0.2347269500D+00
  0.6401216900D+00  0.8137573301D+00
 s    1  1.00
  0.1612777600D+00  0.1000000000D+01
  
 18 0
 s    3  1.00
  0.1873113700D+02  0.3349460400D-01
  0.2825394400D+01  0.2347269500D+00
  0.6401216900D+00  0.8137573301D+00
 s    1  1.00
  0.1612777600D+00  0.1000000000D+01
  
 19 0
 s    3  1.00
  0.1873113700D+02  0.3349460400D-01
  0.2825394400D+01  0.2347269500D+00
  0.6401216900D+00  0.8137573301D+00
 s    1  1.00
  0.1612777600D+00  0.1000000000D+01
 
 
[MO]
 Sym=      1.1
 Ene=     -20.4525
 Spin= Alpha
 Occup=    2.000000
1 -0.000042341702430
2 -0.000599765400359
3 0.002147120774103
4 -0.000001080639375
5 0.000133999456600
6 0.000108198437918
7 -0.000734987568059
8 -0.000917457120894
9 -0.003166197843582
10 -0.000007407553462
11 -0.000115416452682
12 -0.000827131615008
13 -0.000141245910093
14 -0.000006335799813
15 -0.000014514349959
16 0.000135129399936
17 -0.001200140398350
18 0.001075409577918
19 -0.000013062096927
20 -0.000108534544967
21 0.000852700911029
22 0.000026524605036
23 -0.000002026511643
24 -0.000024002675324
25 0.000251685817185
26 -0.000254511554320
27 -0.000209127787702
28 0.000023275176328
29 0.000218165323110
30 -0.000967751394668
31 0.000089113205329
32 0.000054439146900
33 0.000037172379768
34 -0.000476967895650
35 -0.000758592606591
36 0.000229512551655
37 0.000001813351222
38 -0.000027362361941
39 -0.000812774102937
40 -0.000050037567218
41 0.000047213870840
42 -0.000026140269359
43 0.000736556553587
44 0.000385375900837
45 0.000010742892868
46 0.000152211873408
47 0.000161526118799
48 0.006091644670356
49 0.000012284303350
50 0.000069475987756
51 -0.000039719699058
52 0.004943259442158
53 -0.001076147677684
54 0.007343039979264
55 0.99586653030322
56 0.023495809463322
57 -0.015735457207068
58 -0.001486852992575
59 0.000471436503972
60 -0.001735622466854
61 0.003135341230399
62 -0.000821096463118
63 0.003875847428181
64 -0.003472234156792
65 -0.000550380625222
66 0.001953761438646
67 0.000057705292132
68 -0.000101910456780
69 -0.000079015472422
70 -0.001016749711464
71 0.000914658548343
72 -0.000089384335943
73 0.000151792412969
74 0.001138081790393
75 0.000016139515867
76 0.000449530666080
77 -0.000034920140686
78 -0.000489250235674
79 0.000094621177450
80 0.000181414117396
81 -0.000019811701925
82 0.000311382681509
83 -0.000045953052284
84 -0.000076863506971
85 -0.000040555471421
86 -0.000047972515253
87 -0.000020219948030
88 0.000061737329556
89 -0.000000536793260
90 -0.000340517523831
91 0.000154531784164
92 -0.000456447929864
93 0.000101571824653
94 0.000150599506028
 Sym=      2.1
 Ene=     -20.4419
 Spin= Alpha
 Occup=    2.000000
1 -0.000068721121231
2 -0.000730685952015
3 0.003964981718217
4 -0.000265489356243
5 0.000211315085805
6 -0.000006205013178
7 0.002296964398420
8 -0.001186224774514
9 0.001997096158207
10 0.000047741497400
11 0.000417660935242
12 -0.000980844909819
13 0.000057137285213
14 -0.000044417806816
15 0.000063710762981
16 -0.000812972045540
17 0.001034610872607
18 -0.000805422027236
19 -0.000008121020717
20 -0.000090721471821
21 -0.000224688006876
22 -0.000061377834614
23 -0.000020764899182
24 -0.000024684369955
25 0.000251119192616
26 0.000372013666534
27 0.000432113713201
28 -0.000014863122461
29 -0.000053024946390
30 0.001371612181200
31 0.000043557569671
32 0.000105758663147
33 -0.000089838078451
34 0.000195516148907
35 -0.000056582925541
36 -0.000258884891515
37 0.000018782720482
38 0.000216512735656
39 -0.000194132048008
40 0.000073684323581
41 -0.000052416489090
42 0.000015821507072
43 -0.000946058083696
44 0.000334656084378
45 -0.000091250571477
46 0.000111638963090
47 -0.000080797712006
48 0.004247095661627
49 0.000117741638247
50 -0.000063220846878
51 -0.000041100984202
52 0.001399500327926
53 -0.004861104753082
54 -0.007478058731205
55 0.003440932416086
56 -0.000390427186659
57 0.001872662932032
58 0.000098176438729
59 -0.000073932236481
60 0.000031781871162
61 -0.001010964221380
62 0.001106810075059
63 0.000414295695887
64 0.99588608608259
65 0.023269248500548
66 -0.014991890279847
67 -0.000482678070939
68 0.001278984985998
69 0.001774248292875
70 0.000786388673859
71 -0.002594858637696
72 -0.004194244749891
73 -0.000413456307812
74 -0.000439639979659
75 -0.000001954950331
76 0.000061646811392
77 0.000221121692569
78 0.000188717055781
79 -0.000088668695494
80 -0.000327871349798
81 0.000030189057619
82 0.000058307851208
83 0.000048517980169
84 0.000259327999965
85 -0.000007825337540
86 0.000021615379386
87 -0.000060402062927
88 -0.000263004302248
89 -0.000056419101539
90 -0.000122590375831
91 -0.000001158309036
92 -0.000591453035188
93 -0.000057410501953
94 0.000042350325708
 Sym=      3.1
 Ene=     -15.7513
 Spin= Alpha
 Occup=    2.000000
1 -0.000008398230595
2 -0.000503287962880
3 0.004228809266129
4 0.000015184513219
5 0.000130600724172
6 -0.000091888109119
7 0.000158065544430
8 0.002072170655590
9 -0.001524428522541
10 -0.000002350100926
11 -0.000153448455237
12 -0.000490773046890
13 -0.000063783288310
14 -0.000181184384445
15 0.000093655229721
16 -0.000361067420461
17 0.000859026094072
18 -0.000665479008184
19 0.000013236914604
20 0.000048006180683
21 -0.000396301421494
22 -0.000036876714712
23 -0.000010324033161
24 0.000073610952127
25 -0.000452221681088
26 0.000126019672924
27 -0.000167080232600
28 -0.000038253912858
29 -0.000337868613923
30 0.001477806449322
31 -0.000033780684381
32 -0.000020301994890
33 0.000000062321533
34 0.000517376049979
35 0.000568485030447
36 -0.000438590545857
37 0.99605639152880
38 0.024479778879864
39 -0.014777953972026
40 -0.000026489749371
41 0.000151326657870
42 -0.000030380882062
43 0.000285108985158
44 0.000956055271725
45 -0.001070763170976
46 -0.000024927397726
47 -0.000344964120336
48 0.000531011046289
49 0.000114115988274
50 -0.000167906469523
51 0.000047498594219
52 -0.000596429947622
53 0.000077506507737
54 -0.000624741538141
55 -0.000005824865858
56 -0.000077397591025
57 0.000515226433400
58 0.000007663550693
59 0.000033245852471
60 -0.000016021822414
61 -0.000116876190306
62 -0.000058182149470
63 -0.000029613695996
64 0.000008984570541
65 0.000158450026222
66 -0.000666263629675
67 -0.000029865066982
68 0.000008520180581
69 -0.000007739564227
70 0.000256384955250
71 -0.000252780190884
72 -0.000049662558212
73 -0.000240248062481
74 -0.000307884025361
75 0.000011341001544
76 -0.000329477941095
77 0.000361790837399
78 0.001805610777444
79 0.000288583428364
80 0.002189382300906
81 0.000347811695616
82 0.001816856347237
83 -0.000018102312290
84 -0.000136257391446
85 0.000034814233583
86 -0.000421413093687
87 0.000097907809125
88 -0.000037310090229
89 -0.000038283432354
90 0.000186477556737
91 -0.000111612671275
92 -0.000140252437600
93 -0.000131847313282
94 0.000073259852482
 Sym=      4.1
 Ene=     -11.3150
 Spin= Alpha
 Occup=    2.000000
1 0.99408804352740
2 0.027241579498614
3 -0.024574090794385
4 -0.000113050420089
5 0.000787000959396
6 -0.000851420175794
7 0.000441384177450
8 0.000929202646272
9 0.002698231397942
10 0.006093716544208
11 -0.000261729783594
12 0.005286891612650
13 0.000173984454090
14 0.000035530463851
15 0.000062091430127
16 0.003001785675621
17 0.001563184145242
18 -0.000866607552004
19 -0.000171041640597
20 -0.000445746422438
21 0.000950849831196
22 -0.000155716194485
23 -0.000029997015877
24 -0.000023801205030
25 0.000642822365947
26 0.000353968844085
27 0.000446911080395
28 -0.000075531702683
29 -0.000352357728403
30 0.001159821839451
31 -0.000058311184452
32 -0.000070320589299
33 -0.000015235477974
34 0.000218429357989
35 0.000609300544295
36 0.000126103075512
37 -0.000099516492264
38 -0.000165272739265
39 0.003921212018126
40 -0.000007888991520
41 0.000019349828045
42 -0.000062394292157
43 -0.000328125400145
44 -0.001799948936841
45 0.001450855018459
46 0.067445081561730
47 0.001109827620092
48 0.004637530978244
49 -0.000171318939105
50 0.000096464050025
51 0.000016487977309
52 -0.002813577976960
53 0.002356878450886
54 -0.000854572758909
55 -0.000035386418725
56 -0.000331018970267
57 0.001120547396238
58 0.000022604444639
59 0.000003065138713
60 0.000025760810814
61 -0.000031360178131
62 -0.000268615089070
63 -0.000375848894879
64 -0.000019749595061
65 -0.000239809052813
66 0.000123221119596
67 0.000049316509029
68 -0.000065298700785
69 -0.000037668976241
70 0.000132807771458
71 -0.000073823738871
72 0.000163939421898
73 0.000259818275424
74 0.003049740473460
75 -0.000301935201125
76 -0.000242692375041
77 -0.000026801502281
78 0.000359973777979
79 -0.000031366696527
80 0.000398201041108
81 -0.000041502361969
82 0.000432481133565
83 0.000030122550576
84 0.000557850606909
85 -0.000061577729406
86 -0.000400402939258
87 -0.000139794692217
88 -0.000533427311704
89 -0.000007103246755
90 0.000372614723871
91 -0.000071861134976
92 -0.000114860736722
93 -0.000100986351395
94 -0.000492168653232
 Sym=      5.1
 Ene=     -11.3103
 Spin= Alpha
 Occup=    2.000000
1 -0.067641713421256
2 -0.002204890794159
3 0.006796545061186
4 -0.000075878869446
5 -0.000080769687436
6 0.000081596874845
7 0.002526002647654
8 -0.002061069795705
9 -0.000000325226062
10 -0.000598013685920
11 -0.000327475720868
12 -0.000518135207076
13 -0.000256267718082
14 0.000178404224292
15 0.000019043253680
16 0.001667958353377
17 -0.001666720952721
18 -0.000541348479676
19 -0.000058363219134
20 -0.000366819661716
21 0.002515760229226
22 0.000039062955311
23 -0.000060297494651
24 0.000020215206285
25 0.000959435892347
26 -0.000407987314740
27 -0.000106920007604
28 -0.000048503334229
29 -0.000076008828421
30 -0.000862503440687
31 -0.000213807659591
32 -0.000140159032497
33 0.000041042220903
34 0.000200811858672
35 0.000898123326860
36 0.000400751385875
37 -0.000016801953369
38 -0.000345761309493
39 0.000185169396383
40 -0.000115552766276
41 0.000206727818533
42 -0.000043160812167
43 0.000580102296848
44 -0.000877265462754
45 -0.000009001617114
46 0.99389879331534
47 0.025122963633436
48 -0.013190210014328
49 -0.000320641958573
50 0.000192385718212
51 0.000232556093891
52 0.005103933962164
53 -0.003280756933274
54 0.000402239168500
55 -0.000345473561385
56 0.000294560314226
57 -0.000738398478679
58 -0.000132622534052
59 -0.000005950179269
60 -0.000315377464043
61 -0.000083962197470
62 0.000420349450708
63 0.001265349085716
64 -0.000255557676693
65 -0.000022559227075
66 0.000838666724584
67 0.000042537026681
68 0.000062095476789
69 0.000207951196331
70 -0.000906851433830
71 0.000312119839766
72 -0.000661977752716
73 -0.000153933827224
74 -0.000061504255627
75 -0.000188973106319
76 -0.000465633555403
77 -0.000248102834482
78 0.000204610171359
79 0.000176957492144
80 0.000587513843756
81 -0.000246714088456
82 0.000010983239586
83 -0.000070129950230
84 0.000057176930792
85 -0.000098039837227
86 -0.000331180616978
87 -0.000115110095303
88 -0.000053241142942
89 0.000096734842278
90 0.000509521961000
91 -0.000150112711450
92 0.001217688401679
93 -0.000036341685993
94 -0.000373121085098
 Sym=      6.1
 Ene=     -11.2664
 Spin= Alpha
 Occup=    2.000000
1 -0.006269748920983
2 -0.000455650735146
3 0.004768198522670
4 -0.000147469036219
5 -0.000042154030982
6 -0.000039217724975
7 -0.002668654856832
8 -0.001016104639076
9 0.000937149916342
10 0.99581875395146
11 0.027442985951668
12 -0.024508791908628
13 0.000219512794527
14 0.000366744213856
15 0.000156523073391
16 -0.000291595527800
17 -0.000841527081844
18 -0.002157269027146
19 0.032662325987788
20 0.000481993722415
21 0.004820197202381
22 0.000121469730928
23 -0.000072477378318
24 0.000029578472359
25 0.002068190061316
26 -0.001728530339832
27 0.000147546293091
28 0.007157349310557
29 -0.000253008124404
30 0.005770091101531
31 0.000035991076254
32 0.000160171563846
33 -0.000097775959061
34 0.000318750134680
35 0.002159804552857
36 -0.001736740549140
37 -0.000017152961651
38 -0.000278221198305
39 0.000781088166907
40 0.000123073784738
41 0.000066201251257
42 0.000013113036198
43 -0.000674183212598
44 -0.000379369071834
45 -0.000197118260669
46 0.000110471782387
47 -0.000382819925227
48 0.000992077851182
49 0.000082413243236
50 -0.000077116085588
51 0.000030278479635