
 Primary working directories    : /tmp/s1267651
 Secondary working directories  : /tmp/s1267651
 Wavefunction directory         : /home/s1267651/wfu/
 Main file repository           : /tmp/s1267651/

 SHA1      : 960ce83de8be0427555cf121dea4debc26c720b5
 NAME      : 2012.1.960ce83
 ARCHNAME  : Linux/x86_64
 FC        : /opt/intel/composer_xe_2013_sp1.2.144/bin/intel64/ifort
 FCVERSION : 14.0.2
 BLASLIB   : -Wl,-_start-group /opt/intel/mkl/lib/intel64/libmkl_intel_ilp64.a /opt/intel/mkl/lib/intel64/libmkl_sequential.a /opt/intel/mkl/lib/intel64/libmkl_core.a -Wl,-_end-group
 id        : edinburgh

 Nodes          nprocs
 sce-chem-c01105    1

 Using customized tuning parameters: mindgm=7; mindgv=24; mindgc=1; mindgr=1; noblas=0; minvec=7
 default implementation of scratch files=df  

 ***,A TEMPLATE
 
 memory,100m
 
                                                                                 ! atom 1,
 $A=o
 
                                                                                 ! basis set,
 $bset=6-31g
 basis=$bset
 
 geometry={$A}
                                                                                 !hf                          ! method(s)
 $meth=hf
 $meth
 
 $str='../input/$A_$bset_$meth.mld'
 put,molden,$str
 

 Variables initialized (778), CPU time= 0.00 sec
 Commands  initialized (547), CPU time= 0.00 sec, 516 directives.
 Default parameters read. Elapsed time= 0.04 sec

 Checking input...
 Passed
1


                                         ***  PROGRAM SYSTEM MOLPRO  ***
                         Copyright, University College Cardiff Consultants Limited, 2008

                                    Version 2012.1 linked Apr  1 2014 15:33:03


 **********************************************************************************************************************************
 LABEL *   A TEMPLATE                                                                    
 Linux-3.2.0-98-generic/sce-chem-c01105(x86_64) 64 bit serial version                    DATE: 09-Feb-16          TIME: 12:27:23  
 **********************************************************************************************************************************

 SHA1:             960ce83de8be0427555cf121dea4debc26c720b5
 **********************************************************************************************************************************
 SETTING A              =    O
 SETTING BSET           =    6-31G

 Variable memory set to    8000000 words,  buffer space   230000 words

 SETTING BASIS          =    $BSET
 SETTING METH           =    HF


 Current variables in basis input:

 Set= 1  $BSET               =  6-31G

 Recomputing integrals since basis changed


 Using spherical harmonics

 Library entry O      S 6-31G                selected for orbital group  1
 Library entry O      P 6-31G                selected for orbital group  1

1PROGRAM * SEWARD (Integral evaluation for generally contracted gaussian basis sets)     Author: Roland Lindh, 1990

 Geometry written to block  1 of record 700

 Orientation using atomic masses  
 Molecule type: Atom
 Symmetry elements: X,Y,Z
 Rotational constants:       0.0000000      0.0000000      0.0000000 GHz  (calculated with average atomic masses)

 Point group  D2h 



 ATOMIC COORDINATES

 NR  ATOM    CHARGE       X              Y              Z

   1  O       8.00    0.000000000    0.000000000    0.000000000

 NUCLEAR CHARGE:                    8
 NUMBER OF PRIMITIVE AOS:          22
 NUMBER OF SYMMETRY AOS:           22
 NUMBER OF CONTRACTIONS:            9   (   3Ag  +   2B3u +   2B2u +   0B1g +   2B1u +   0B2g +   0B3g +   0Au  )
 NUMBER OF CORE ORBITALS:           1   (   1Ag  +   0B3u +   0B2u +   0B1g +   0B1u +   0B2g +   0B3g +   0Au  )
 NUMBER OF VALENCE ORBITALS:        4   (   1Ag  +   1B3u +   1B2u +   0B1g +   1B1u +   0B2g +   0B3g +   0Au  )


 NUCLEAR REPULSION ENERGY    0.00000000


 Eigenvalues of metric

         1 0.233E+00 0.909E+00 0.186E+01
         2 0.498E+00 0.150E+01
         3 0.498E+00 0.150E+01
         5 0.498E+00 0.150E+01


 Contracted 2-electron integrals neglected if value below      1.0D-11
 AO integral compression algorithm  1   Integral accuracy      1.0D-11

     0.262 MB (compressed) written to integral file (100.0%)


 NUMBER OF SORTED TWO-ELECTRON INTEGRALS:        282.     BUFFER LENGTH:  32768
 NUMBER OF SEGMENTS:   1  SEGMENT LENGTH:        282      RECORD LENGTH: 524288

 Memory used in sort:       0.56 MW

 SORT1 READ         633. AND WROTE         282. INTEGRALS IN      1 RECORDS. CPU TIME:     0.00 SEC, REAL TIME:     0.00 SEC
 SORT2 READ         282. AND WROTE         282. INTEGRALS IN      1 RECORDS. CPU TIME:     0.00 SEC, REAL TIME:     0.00 SEC

 FILE SIZES:   FILE 1:     7.8 MBYTE,  FILE 4:     4.2 MBYTE,   TOTAL:     12.0 MBYTE

 OPERATOR DM      FOR CENTER  0  COORDINATES:    0.000000    0.000000    0.000000


 **********************************************************************************************************************************
 DATASETS  * FILE   NREC   LENGTH (MB)   RECORD NAMES
              1      19        7.50       500      610      700      900      950      970     1000      129      960     1100   
                                          VAR    BASINP    GEOM    SYMINP    ZMAT    AOBASIS   BASIS     P2S    ABASIS      S 
                                         1400     1410     1200     1210     1080     1600     1650     1300     1700   
                                           T        V       H0       H01     AOSYM     SMH    MOLCAS    ERIS     OPER   

 PROGRAMS   *        TOTAL       INT
 CPU TIMES  *         0.08      0.02
 REAL TIME  *         0.12 SEC
 DISK USED  *        12.23 MB      
 **********************************************************************************************************************************

1PROGRAM * RHF-SCF (CLOSED SHELL)       Authors: W. Meyer, H.-J. Werner


 NUMBER OF ELECTRONS:       4+    4-
 CONVERGENCE THRESHOLDS:    1.00E-05 (Density)    1.00E-07 (Energy)
 MAX. NUMBER OF ITERATIONS:       60
 INTERPOLATION TYPE:            DIIS
 INTERPOLATION STEPS:              2 (START)      1 (STEP)
 LEVEL SHIFTS:                  0.00 (CLOSED)  0.00 (OPEN) 



 Orbital guess generated from atomic densities. Full valence occupancy:    2   1   1   0   1   0   0   0


 Molecular orbital dump at record        2100.2

 Initial alpha occupancy:   2   1   1   0   0
 Initial beta  occupancy:   2   1   1   0   0
 Wave function symmetry:    1

 ITERATION    DDIFF          GRAD             ENERGY        2-EL.EN.            DIPOLE MOMENTS         DIIS   ORB.
    1      0.000D+00      0.000D+00       -74.64608437     55.718903    0.00000    0.00000    0.00000    0    start
    2      0.000D+00      0.519D-01       -74.65510613     57.150076    0.00000    0.00000    0.00000    1    diag
    3      0.513D-01      0.152D-01       -74.65580694     56.851401    0.00000    0.00000    0.00000    2    diag
    4      0.114D-01      0.117D-02       -74.65581295     56.850038    0.00000    0.00000    0.00000    3    diag
    5      0.144D-02      0.365D-04       -74.65581296     56.850445    0.00000    0.00000    0.00000    4    diag
    6      0.450D-04      0.186D-06       -74.65581296     56.850442    0.00000    0.00000    0.00000    5    diag
    7      0.136D-06      0.521D-09       -74.65581296     56.850442    0.00000    0.00000    0.00000    0    orth

 Final occupancy:   2   1   1   0   0

 !RHF STATE 1.1 Energy                -74.655812956749
 Nuclear energy                         0.00000000
 One-electron energy                 -103.08103376
 Two-electron energy                   28.42522081
 Virial quotient                       -1.00160908
 !RHF STATE 1.1 Dipole moment           0.00000000     0.00000000     0.00000000
 Dipole moment /Debye                   0.00000000     0.00000000     0.00000000

 Orbital energies:

         1.1          2.1          3.1
    -20.709419    -1.252785     1.195275

         1.2          2.2
     -0.576546     1.104774

         1.3          2.3
     -0.576546     1.104774

         1.5          2.5
      0.004755     1.155777

 HOMO      1.2    -0.576546 =     -15.6886eV
 LUMO      1.5     0.004755 =       0.1294eV
 LUMO-HOMO         0.581302 =      15.8180eV


 **********************************************************************************************************************************
 DATASETS  * FILE   NREC   LENGTH (MB)   RECORD NAMES
              1      19        7.50       500      610      700      900      950      970     1000      129      960     1100   
                                          VAR    BASINP    GEOM    SYMINP    ZMAT    AOBASIS   BASIS     P2S    ABASIS      S 
                                         1400     1410     1200     1210     1080     1600     1650     1300     1700   
                                           T        V       H0       H01     AOSYM     SMH    MOLCAS    ERIS     OPER   

              2       4        0.28       700     1000      520     2100   
                                         GEOM     BASIS   MCVARS     RHF  

 PROGRAMS   *        TOTAL        HF       INT
 CPU TIMES  *         0.08      0.00      0.02
 REAL TIME  *         0.12 SEC
 DISK USED  *        12.23 MB      
 **********************************************************************************************************************************
 SETTING STR            =    ../input/O_6-31G_HF.mld   

 Dump information in style MOLDEN to ../input/o_6-31g_hf.mld                                                         

 Molecular orbitals read from record     2100.2  Type=RHF/CANONICAL (state 1.1)
 Occupation numbers read from record     2100.2  Type=RHF/RHF (state 1.1)
 Orbital energies read from record       2100.2  Type=RHF/CANONICAL (state 1.1)
 Redundancy group numbers read from rec  2100.2  Type=RHF/RHF (state 1.1)
 
 DUMP ORBITAL  1.1 AS ORBITAL    1  occ=    2.0000  eig=  -20.7094  GROUP=   2
 DUMP ORBITAL  2.1 AS ORBITAL    2  occ=    2.0000  eig=   -1.2528  GROUP=   2
 DUMP ORBITAL  1.3 AS ORBITAL    3  occ=    2.0000  eig=   -0.5765  GROUP=   2
 DUMP ORBITAL  1.2 AS ORBITAL    4  occ=    2.0000  eig=   -0.5765  GROUP=   2

 Total charge:       8.000000

 **********************************************************************************************************************************

        HF      
    -74.65581296
 **********************************************************************************************************************************
 Variable memory released
