
 Primary working directories    : /tmp/s1267651
 Secondary working directories  : /tmp/s1267651
 Wavefunction directory         : /home/s1267651/wfu/
 Main file repository           : /tmp/s1267651/

 SHA1      : 960ce83de8be0427555cf121dea4debc26c720b5
 NAME      : 2012.1.960ce83
 ARCHNAME  : Linux/x86_64
 FC        : /opt/intel/composer_xe_2013_sp1.2.144/bin/intel64/ifort
 FCVERSION : 14.0.2
 BLASLIB   : -Wl,-_start-group /opt/intel/mkl/lib/intel64/libmkl_intel_ilp64.a /opt/intel/mkl/lib/intel64/libmkl_sequential.a /opt/intel/mkl/lib/intel64/libmkl_core.a -Wl,-_end-group
 id        : edinburgh

 Nodes          nprocs
 sce-chem-c01105    1

 Using customized tuning parameters: mindgm=7; mindgv=24; mindgc=1; mindgr=1; noblas=0; minvec=7
 default implementation of scratch files=df  

 ***,A TEMPLATE
 
 memory,100m
 
                                                                                 ! atom 1,
 $A=s
 
                                                                                 ! basis set,
 $bset=6-31g
 basis=$bset
 
 geometry={$A}
                                                                                 !hf                          ! method(s)
 $meth=hf
 $meth
 
 $str='../input/$A_$bset_$meth.mld'
 put,molden,$str
 

 Variables initialized (778), CPU time= 0.00 sec
 Commands  initialized (547), CPU time= 0.01 sec, 516 directives.
 Default parameters read. Elapsed time= 0.18 sec

 Checking input...
 Passed
1


                                         ***  PROGRAM SYSTEM MOLPRO  ***
                         Copyright, University College Cardiff Consultants Limited, 2008

                                    Version 2012.1 linked Apr  1 2014 15:33:03


 **********************************************************************************************************************************
 LABEL *   A TEMPLATE                                                                    
 Linux-3.2.0-98-generic/sce-chem-c01105(x86_64) 64 bit serial version                    DATE: 09-Feb-16          TIME: 12:27:15  
 **********************************************************************************************************************************

 SHA1:             960ce83de8be0427555cf121dea4debc26c720b5
 **********************************************************************************************************************************
 SETTING A              =    S
 SETTING BSET           =    6-31G

 Variable memory set to    8000000 words,  buffer space   230000 words

 SETTING BASIS          =    $BSET
 SETTING METH           =    HF


 Current variables in basis input:

 Set= 1  $BSET               =  6-31G

 Recomputing integrals since basis changed


 Using spherical harmonics

 Library entry S      S 6-31G                selected for orbital group  1
 Library entry S      P 6-31G                selected for orbital group  1

1PROGRAM * SEWARD (Integral evaluation for generally contracted gaussian basis sets)     Author: Roland Lindh, 1990

 Geometry written to block  1 of record 700

 Orientation using atomic masses  
 Molecule type: Atom
 Symmetry elements: X,Y,Z
 Rotational constants:       0.0000000      0.0000000      0.0000000 GHz  (calculated with average atomic masses)

 Point group  D2h 



 ATOMIC COORDINATES

 NR  ATOM    CHARGE       X              Y              Z

   1  S      16.00    0.000000000    0.000000000    0.000000000

 NUCLEAR CHARGE:                   16
 NUMBER OF PRIMITIVE AOS:          46
 NUMBER OF SYMMETRY AOS:           46
 NUMBER OF CONTRACTIONS:           13   (   4Ag  +   3B3u +   3B2u +   0B1g +   3B1u +   0B2g +   0B3g +   0Au  )
 NUMBER OF CORE ORBITALS:           5   (   2Ag  +   1B3u +   1B2u +   0B1g +   1B1u +   0B2g +   0B3g +   0Au  )
 NUMBER OF VALENCE ORBITALS:        4   (   1Ag  +   1B3u +   1B2u +   0B1g +   1B1u +   0B2g +   0B3g +   0Au  )


 NUCLEAR REPULSION ENERGY    0.00000000


 Eigenvalues of metric

         1 0.166E+00 0.672E+00 0.115E+01 0.201E+01
         2 0.320E+00 0.945E+00 0.173E+01
         3 0.320E+00 0.945E+00 0.173E+01
         5 0.320E+00 0.945E+00 0.173E+01


 Contracted 2-electron integrals neglected if value below      1.0D-11
 AO integral compression algorithm  1   Integral accuracy      1.0D-11

     0.262 MB (compressed) written to integral file (100.0%)


 NUMBER OF SORTED TWO-ELECTRON INTEGRALS:        982.     BUFFER LENGTH:  32768
 NUMBER OF SEGMENTS:   1  SEGMENT LENGTH:        982      RECORD LENGTH: 524288

 Memory used in sort:       0.56 MW

 SORT1 READ        2821. AND WROTE         982. INTEGRALS IN      1 RECORDS. CPU TIME:     0.00 SEC, REAL TIME:     0.00 SEC
 SORT2 READ         982. AND WROTE         982. INTEGRALS IN      1 RECORDS. CPU TIME:     0.00 SEC, REAL TIME:     0.01 SEC

 FILE SIZES:   FILE 1:     7.8 MBYTE,  FILE 4:     4.2 MBYTE,   TOTAL:     12.0 MBYTE

 OPERATOR DM      FOR CENTER  0  COORDINATES:    0.000000    0.000000    0.000000


 **********************************************************************************************************************************
 DATASETS  * FILE   NREC   LENGTH (MB)   RECORD NAMES
              1      19        7.51       500      610      700      900      950      970     1000      129      960     1100   
                                          VAR    BASINP    GEOM    SYMINP    ZMAT    AOBASIS   BASIS     P2S    ABASIS      S 
                                         1400     1410     1200     1210     1080     1600     1650     1300     1700   
                                           T        V       H0       H01     AOSYM     SMH    MOLCAS    ERIS     OPER   

 PROGRAMS   *        TOTAL       INT
 CPU TIMES  *         0.12      0.04
 REAL TIME  *         0.75 SEC
 DISK USED  *        12.25 MB      
 **********************************************************************************************************************************

1PROGRAM * RHF-SCF (CLOSED SHELL)       Authors: W. Meyer, H.-J. Werner


 NUMBER OF ELECTRONS:       8+    8-
 CONVERGENCE THRESHOLDS:    1.00E-05 (Density)    1.00E-07 (Energy)
 MAX. NUMBER OF ITERATIONS:       60
 INTERPOLATION TYPE:            DIIS
 INTERPOLATION STEPS:              2 (START)      1 (STEP)
 LEVEL SHIFTS:                  0.00 (CLOSED)  0.00 (OPEN) 



 Orbital guess generated from atomic densities. Full valence occupancy:    3   2   2   0   2   0   0   0


 Molecular orbital dump at record        2100.2

 Initial alpha occupancy:   3   2   2   0   1
 Initial beta  occupancy:   3   2   2   0   1
 Wave function symmetry:    1

 ITERATION    DDIFF          GRAD             ENERGY        2-EL.EN.            DIPOLE MOMENTS         DIIS   ORB.
    1      0.000D+00      0.000D+00      -397.38902124    302.415132    0.00000    0.00000    0.00000    0    start
    2      0.000D+00      0.130D-01      -397.39140935    303.672557    0.00000    0.00000    0.00000    1    diag
    3      0.295D-01      0.228D-02      -397.39144208    303.554311    0.00000    0.00000    0.00000    2    diag
    4      0.331D-02      0.260D-03      -397.39144314    303.561052    0.00000    0.00000    0.00000    3    diag
    5      0.636D-03      0.432D-04      -397.39144318    303.561366    0.00000    0.00000    0.00000    4    diag
    6      0.145D-03      0.264D-05      -397.39144318    303.561318    0.00000    0.00000    0.00000    5    diag
    7      0.848D-05      0.842D-08      -397.39144318    303.561318    0.00000    0.00000    0.00000    0    orth

 Final occupancy:   3   2   2   0   1

 !RHF STATE 1.1 Energy               -397.391443180950
 Nuclear energy                         0.00000000
 One-electron energy                 -549.17210237
 Two-electron energy                  151.78065919
 Virial quotient                       -0.99991937
 !RHF STATE 1.1 Dipole moment           0.00000000     0.00000000     0.00000000
 Dipole moment /Debye                   0.00000000     0.00000000     0.00000000

 Orbital energies:

         1.1          2.1          3.1          4.1
    -92.008731    -9.017803    -0.885922     0.421438

         1.2          2.2          3.2
     -6.693837    -0.402073     0.520979

         1.3          2.3          3.3
     -6.693837    -0.402073     0.520979

         1.5          2.5          3.5
     -6.701115    -0.068773     0.520790

 HOMO      2.2    -0.402073 =     -10.9410eV
 LUMO      2.5    -0.068773 =      -1.8714eV
 LUMO-HOMO         0.333300 =       9.0696eV


 **********************************************************************************************************************************
 DATASETS  * FILE   NREC   LENGTH (MB)   RECORD NAMES
              1      19        7.51       500      610      700      900      950      970     1000      129      960     1100   
                                          VAR    BASINP    GEOM    SYMINP    ZMAT    AOBASIS   BASIS     P2S    ABASIS      S 
                                         1400     1410     1200     1210     1080     1600     1650     1300     1700   
                                           T        V       H0       H01     AOSYM     SMH    MOLCAS    ERIS     OPER   

              2       4        0.28       700     1000      520     2100   
                                         GEOM     BASIS   MCVARS     RHF  

 PROGRAMS   *        TOTAL        HF       INT
 CPU TIMES  *         0.13      0.01      0.04
 REAL TIME  *         0.93 SEC
 DISK USED  *        12.25 MB      
 **********************************************************************************************************************************
 SETTING STR            =    ../input/S_6-31G_HF.mld   

 Dump information in style MOLDEN to ../input/s_6-31g_hf.mld                                                         

 Molecular orbitals read from record     2100.2  Type=RHF/CANONICAL (state 1.1)
 Occupation numbers read from record     2100.2  Type=RHF/RHF (state 1.1)
 Orbital energies read from record       2100.2  Type=RHF/CANONICAL (state 1.1)
 Redundancy group numbers read from rec  2100.2  Type=RHF/RHF (state 1.1)
 
 DUMP ORBITAL  1.1 AS ORBITAL    1  occ=    2.0000  eig=  -92.0087  GROUP=   2
 DUMP ORBITAL  2.1 AS ORBITAL    2  occ=    2.0000  eig=   -9.0178  GROUP=   2
 DUMP ORBITAL  1.5 AS ORBITAL    3  occ=    2.0000  eig=   -6.7011  GROUP=   2
 DUMP ORBITAL  1.2 AS ORBITAL    4  occ=    2.0000  eig=   -6.6938  GROUP=   2
 DUMP ORBITAL  1.3 AS ORBITAL    5  occ=    2.0000  eig=   -6.6938  GROUP=   2
 DUMP ORBITAL  3.1 AS ORBITAL    6  occ=    2.0000  eig=   -0.8859  GROUP=   2
 DUMP ORBITAL  2.2 AS ORBITAL    7  occ=    2.0000  eig=   -0.4021  GROUP=   2
 DUMP ORBITAL  2.3 AS ORBITAL    8  occ=    2.0000  eig=   -0.4021  GROUP=   2

 Total charge:      16.000000

 **********************************************************************************************************************************

        HF      
   -397.39144318
 **********************************************************************************************************************************
 Variable memory released
